   This run of MOLCAS is using the pymolcas driver

                             OPE
                             OPE          NMOL  CASOP  ENMOLC A   SO
                 OPE        NMOLC        AS  OP EN  MO LC     AS  OP
                OPENM       OL CA        SO  PE NM  OL CA     SOP EN
                OP EN      MO   LC       AS  OP ENMOL  CASO   PENMOL
                OP  EN     MO   LC       AS  OP EN     MO     LC ASO
               OP   E  NMOL  C  AS       OP  EN MO     LC     AS  OP
               OP  E   NMO   LC AS        OPEN  MO     LCASOP EN   M
               O  PEN   MO  LCA  SO
            OPE   NMO   L   CAS    OP
        OPENMOL  CASOP     ENMOL   CASOPE
     OPENMOLCA   SOPENMOLCASOPEN   MOLCASOPE
    OPENMOLCAS   OP           EN   MOL    CAS
    OPENMOLCAS       OP  ENM        O     LCA
    OPENMOLCAS    OPEN  MOLCASO     P  E  NMO
    OPENMOLCAS     OP               E  N  MOL
    OPENMOLCA   SO           PENM   O  L  CAS    OPEN    MO    LCAS
    OPENMOLCA   SOP           ENM   O  L  CAS   OP  EN  MOLC  AS   O
    OPENMOLCA   SOPE           NM      O  LCA   S      OP  EN MO
    OPENMOLC                AS         O  PEN   M      OL  CA  SOPE
    OPENMO        LCASOPE  NMOL        C  ASO   P      ENMOLC     AS
    OPE     NMO      LCA  SO     P     E   NM   OL  CA SO  PE N   MO
          OPENMOLCA            SOPE   NMO        LCAS  O    P  ENMO
     OPENMOLCASOPENMOLCASOPENMOLCASOPENMOLCA
        OPENMOLCASOPENMOLCASOPENMOLCASOPE
            OPENMOLCASOPENMOLCASOPENM
               OPENMOLCASOPENMOLCA        version: 19.11
                   OPENMOLCASO
                       OPE                tag: 33-gd871590-dirty

 OpenMolcas is free software; you can redistribute it and/or modify it
 under the terms of the GNU Lesser General Public License version 2.1.
 OpenMolcas is distributed in the hope that it will be useful, but it
 is provided "as is" and without any express or implied warranties.
 For more details see the full text of the license in the file
 LICENSE or in <http://www.gnu.org/licenses/>.

                 Copyright (C) The OpenMolcas Authors
           For the author list and the recommended citation,
                   consult the file CONTRIBUTORS.md

           *************************************************
           * pymolcas version py2.18                       *
           *   build f15a54c31721b3832f189ca2d289fe64      *
           *   (after the EMIL interpreter by V. Veryazov) *
           *************************************************

configuration info
------------------
C Compiler ID: Intel
C flags: -std=gnu99
Fortran Compiler ID: Intel
Fortran flags: -fpp -i8 -r8 -heap-arrays
Definitions: _MOLCAS_;_I8_;_LINUX_;_MKL_
Parallel: OFF (GA=OFF)


   -----------------------------------------------------------------------------
  |
  |              Project: molcas
  |       Submitted from: /data/nhlist/ued/2-iodo-thiophene/molcas/singlet
  |         Scratch area: /data/nhlist/ued/2-iodo-thiophene/molcas/singlet/TMP
  |      Save outputs to: /data/nhlist/ued/2-iodo-thiophene/molcas/singlet
  |               Molcas: /home/nhlist/programs/OpenMolcas/openmolcas
  |
  | Scratch area is NOT empty
  |
  |       MOLCAS_DRIVER = /home/dlahana/installers/openmolcas/wfa/build/pymolcas
  | MOLCAS_KEEP_WORKDIR = YES
  |       MOLCAS_MOLDEN = ON
  |  MOLCAS_NEW_WORKDIR = NO
  |       MOLCAS_NPROCS = 1
  |        MOLCAS_PRINT = normal
  |       MOLCAS_SOURCE = /home/nhlist/programs/OpenMolcas/openmolcas
  |    MOLCAS_STRUCTURE = 0
  |
   -----------------------------------------------------------------------------

++ ---------   Input file   ---------

>>> EXPORT MOLCAS_MOLDEN = ON

&GATEWAY
 coord = 2-iodo-thiophene-mp2opt.xyz
 Group = NoSym
 Basis = ANO-RCC-VDZP
RICD
AMFI

&SEWARD

>>> COPY molcas.RasOrb INPORB

&RASSCF
 LUMORB
 NACTel = 16 0 0
 Spin = 1
 ciroot = 9 9 1
 cholesky
 cimx = 200
 iter = 200 50

&CASPT2
maxiter=300
xmul = 9 1 2 3 4 5 6 7 8 9
imag=0.3
ipea=0.0
frozen=0

>>> COPY $Project.JobMix JOB001

-- ----------------------------------

>>> EXPORT MOLCAS_MOLDEN = ON

*** symbolic link created: INPORB -> molcas.RasOrb
--- Start Module: gateway at Sat Nov 27 22:52:20 2021 ---
 
()()()()()()()()()()()()()()()()()()()()()()()()()()()()()()()()()()()()()()()()()()()()()()()()()()

                                              &GATEWAY

                                   only a single process is used
                       available to each process: 8.0 GB of memory, 1 thread?
()()()()()()()()()()()()()()()()()()()()()()()()()()()()()()()()()()()()()()()()()()()()()()()()()()
 
 
++    Symmetry information:
      ---------------------
 
                    Character Table for C1 
 
                             E  
                    a        1  x, y, xy, Rz, z, xz, Ry, yz, Rx, I
--
 
 
++    Basis set information:
      ----------------------
 
 
      Basis set label: C.ANO-RCC...3S2P1D.
 
      Electronic valence basis set:
      ------------------
      Associated Effective Charge   6.000000 au
      Associated Actual Charge      6.000000 au
      Nuclear Model: Point charge
 
      Shell  nPrim  nBasis  Cartesian Spherical Contaminant
         s      14       3        X                  
         p       9       2        X                  
         d       4       1                 X         
 
 
      Basis set label: S.ANO-RCC...4S3P1D.
 
      Electronic valence basis set:
      ------------------
      Associated Effective Charge  16.000000 au
      Associated Actual Charge     16.000000 au
      Nuclear Model: Point charge
 
      Shell  nPrim  nBasis  Cartesian Spherical Contaminant
         s      17       4        X                  
         p      12       3        X                  
         d       5       1                 X         
 
 
      Basis set label: H.ANO-RCC...2S1P.
 
      Electronic valence basis set:
      ------------------
      Associated Effective Charge   1.000000 au
      Associated Actual Charge      1.000000 au
      Nuclear Model: Point charge
 
      Shell  nPrim  nBasis  Cartesian Spherical Contaminant
         s       8       2        X                  
         p       4       1        X                  
 
 
      Basis set label: I.ANO-RCC...6S5P3D1F.
 
      Electronic valence basis set:
      ------------------
      Associated Effective Charge  53.000000 au
      Associated Actual Charge     53.000000 au
      Nuclear Model: Point charge
 
      Shell  nPrim  nBasis  Cartesian Spherical Contaminant
         s      22       6        X                  
         p      19       5        X                  
         d      13       3                 X         
         f       5       1                 X         
--
 
 
++    Molecular structure info:
      -------------------------
 
                    ************************************************ 
                    **** Cartesian Coordinates / Bohr, Angstrom **** 
                    ************************************************ 
 
     Center  Label                x              y              z                     x              y              z
        1      C1              -2.371520      -0.224863       0.002775             -1.254955      -0.118992       0.001468
        2      C2              -0.826601      -2.343774      -0.001207             -0.437418      -1.240272      -0.000639
        3      C3               1.796042      -1.727829      -0.003961              0.950424      -0.914328      -0.002096
        4      C4               2.188724       0.871311      -0.002039              1.158223       0.461078      -0.001079
        5      S5              -0.629823       2.539365       0.003137             -0.333288       1.343774       0.001660
        6      H6              -4.432638      -0.148137       0.005434             -2.345651      -0.078391       0.002875
        7      H7              -1.561063      -4.274626      -0.002086             -0.826079      -2.262035      -0.001104
        8      H8               3.334499      -3.104303      -0.007198              1.764541      -1.642727      -0.003809
        9      I9               5.680709       2.741977      -0.004681              3.006102       1.450992      -0.002477
 
                    *************************************** 
                    *    InterNuclear Distances / Bohr    * 
                    *************************************** 
 
               1 C1            2 C2            3 C3            4 C4            5 S5            6 H6    
    1 C1       0.000000
    2 C2       2.622323        0.000000
    3 C3       4.430297        2.694002        0.000000
    4 C4       4.690144        4.407829        2.628637        0.000000
    5 S5       3.267179        4.887103        4.908545        3.275155        0.000000
    6 H6       2.062547        4.221891        6.425882        6.699385        4.656616        0.000000
    7 H7       4.130067        2.065824        4.213826        6.367227        6.877333        5.027316
    8 H8       6.391396        4.230035        2.064351        4.137432        6.896880        8.310686
    9 I9       8.581410        8.258932        5.921977        3.961484        6.313789       10.518205
 
               7 H7            8 H8            9 I9    
    7 H7       0.000000
    8 H8       5.033509        0.000000
    9 I9      10.083451        6.299500        0.000000
 
                    ******************************************* 
                    *    InterNuclear Distances / Angstrom    * 
                    ******************************************* 
 
               1 C1            2 C2            3 C3            4 C4            5 S5            6 H6    
    1 C1       0.000000
    2 C2       1.387673        0.000000
    3 C3       2.344412        1.425605        0.000000
    4 C4       2.481917        2.332523        1.391015        0.000000
    5 S5       1.728917        2.586144        2.597490        1.733137        0.000000
    6 H6       1.091453        2.234129        3.400431        3.545162        2.464175        0.000000
    7 H7       2.185537        1.093187        2.229861        3.369391        3.639328        2.660341
    8 H8       3.382181        2.238438        1.092407        2.189434        3.649671        4.397825
    9 I9       4.541087        4.370438        3.133775        2.096327        3.341113        5.565995
 
               7 H7            8 H8            9 I9    
    7 H7       0.000000
    8 H8       2.663618        0.000000
    9 I9       5.335933        3.333552        0.000000
 
                    ************************************** 
                    *    Valence Bond Angles / Degree    * 
                    ************************************** 
                          Atom centers                 Phi
                      2 C2       1 C1       6 H6       128.23
                      1 C1       2 C2       3 C3       112.88
                      1 C1       2 C2       7 H7       123.08
                      3 C3       2 C2       7 H7       124.04
                      2 C2       3 C3       4 C4       111.81
                      2 C2       3 C3       8 H8       124.96
                      4 C4       3 C3       8 H8       123.23
 
           ***************************************************************
           *              Valence Dihedral Angles / Degree               *
           ***************************************************************
                    Atom centers                       Phi1     Phi2     Theta 
           6 H6       1 C1       2 C2       7 H7        128.23   123.08    -0.00
           3 C3       2 C2       1 C1       6 H6        112.88   128.23   180.00
           1 C1       2 C2       3 C3       4 C4        112.88   111.81    -0.00
           1 C1       2 C2       3 C3       8 H8        112.88   124.96   180.00
           7 H7       2 C2       3 C3       8 H8        124.04   124.96    -0.00
           4 C4       3 C3       2 C2       7 H7        111.81   124.04   180.00
--
 
 
            Nuclear Potential Energy            553.39788866 au
 
--- Stop Module: gateway at Sat Nov 27 22:52:37 2021 /rc=_RC_ALL_IS_WELL_ ---
--- Module gateway spent 17 seconds ---

*** symbolic link created: INPORB -> molcas.RasOrb
--- Start Module: seward at Sat Nov 27 22:52:37 2021 ---
 
()()()()()()()()()()()()()()()()()()()()()()()()()()()()()()()()()()()()()()()()()()()()()()()()()()

                                              &SEWARD

                                   only a single process is used
                       available to each process: 8.0 GB of memory, 1 thread?
()()()()()()()()()()()()()()()()()()()()()()()()()()()()()()()()()()()()()()()()()()()()()()()()()()
 
               SEWARD will generate:
                  Multipole Moment integrals up to order  2
                  Kinetic Energy integrals
                  Nuclear Attraction integrals (point charge)
                  One-Electron Hamiltonian integrals
                  Velocity integrals
                  Relativistic Douglas-Kroll-Hess integrals:
                    - Parametrization         : EXP
                    - DKH order of Hamiltonian: 2
                    - DKH order of Properties : 0
                         - multipole moment operators
                         - electric potential operators
                         - contact operators
                  Orbital angular momentum around ( 3.3708  1.8126 -0.0026 )
                  Velocity quadrupole around ( 3.3708  1.8126 -0.0026 )
                  Atomic mean-field integrals
                  RI decomposed two-electron repulsion integrals stored Cholesky style
                   - acCD auxiliary basis
                   - CD Threshold:   0.10E-03
 
                   Integrals are discarded if absolute value <: 0.10E-13
                   Integral cutoff threshold is set to       <: 0.10E-15
 
            Nuclear Potential Energy            553.39788866 au
 
 
      Basis set specifications :
      Symmetry species         a  
      Basis functions          132
 
 
  Input file to MOLDEN was generated!
 
--- Stop Module: seward at Sat Nov 27 22:52:57 2021 /rc=_RC_ALL_IS_WELL_ ---
--- Module seward spent 20 seconds ---

>>> COPY molcas.RasOrb INPORB

--- Start Module: rasscf at Sat Nov 27 22:52:58 2021 ---
 
()()()()()()()()()()()()()()()()()()()()()()()()()()()()()()()()()()()()()()()()()()()()()()()()()()

                                              &RASSCF

                                   only a single process is used
                       available to each process: 8.0 GB of memory, 1 thread?
()()()()()()()()()()()()()()()()()()()()()()()()()()()()()()()()()()()()()()()()()()()()()()()()()()
 

 
      Header of the ONEINT file:
      --------------------------
      
      Integrals generated by seward 4.2.0  , Sat Nov 27 22:52:38 2021
 
 
      OrdInt status: non-squared
 
 
      Cartesian coordinates in Angstrom:
      -----------------------------------------------------
      No.  Label        X            Y            Z        
      -----------------------------------------------------
       1   C1        -1.25495452  -0.11899220   0.00146828
       2   C2        -0.43741819  -1.24027162  -0.00063863
       3   C3         0.95042448  -0.91432773  -0.00209588
       4   C4         1.15822303   0.46107809  -0.00107905
       5   S5        -0.33328801   1.34377387   0.00165986
       6   H6        -2.34565081  -0.07839074   0.00287531
       7   H7        -0.82607895  -2.26203477  -0.00110395
       8   H8         1.76454110  -1.64272662  -0.00380893
       9   I9         3.00610187   1.45099172  -0.00247701
      -----------------------------------------------------
      Nuclear repulsion energy =  553.39788866
 
++    Wave function specifications:
      -----------------------------
 
      Number of closed shell electrons          80
      Number of electrons in active shells      16
      Max number of holes in RAS1 space          0
      Max nr of electrons in RAS3 space          0
      Number of inactive orbitals               40
      Number of active orbitals                 13
      Number of secondary orbitals              79
      Spin quantum number                      0.0
      State symmetry                             1
--
 
++    Orbital specifications:
      -----------------------
 
      Symmetry species                           1
                                                 a
      Frozen orbitals                            0
      Inactive orbitals                         40
      Active orbitals                           13
      RAS1 orbitals                              0
      RAS2 orbitals                             13
      RAS3 orbitals                              0
      Secondary orbitals                        79
      Deleted orbitals                           0
      Number of basis functions                132
--
 
++    CI expansion specifications:
      ----------------------------
 
      Number of CSFs                        429429
      Number of determinants                828828
      Number of root(s) required                 9
      Root chosen for geometry opt.              9
      CI roots used                              1     2     3     4     5     6     7     8     9
      weights                                0.111 0.111 0.111 0.111 0.111 0.111 0.111 0.111 0.111
      highest root included in the CI            9
      max. size of the explicit Hamiltonian    200
--
 
++    Optimization specifications:
      ----------------------------
 
      RASSCF algorithm: LK RI/DF
      Maximum number of macro iterations       200
      Maximum number of SX iterations           50
      Threshold for RASSCF energy            0.100E-07
      Threshold for max MO rotation          0.100E+00
      Threshold for max BLB element          0.100E-03
      Level shift parameter                  0.500E+00
      Make Quasi-Newton update
--
 
      The MO-coefficients are taken from the file:
      INPORB                                                                                                                          
      Title: RASSCF average (pseudo-natural) orbitals                                      
 
      Total molecular charge    0.00
 
      ************************************************************************************************************************
      *                                                                                                                      *
      *                                            Wave function control section                                             *
      *                                                                                                                      *
      ************************************************************************************************************************
 
 
                                         RASSCF iterations: Energy and convergence statistics
                                         ----------------------------------------------------
 
      Iter CI   SX   CI       RASSCF       Energy    max ROT     max BLB   max BLB  Level Ln srch  Step   QN   Walltime
          iter iter root      energy       change     param      element    value   shift minimum  type update hh:mm:ss
 Nr of preliminary CI iterations:  10
      Total energies have been shifted. Add                -7000.00 au
        1   1    5    0  -662.68334440    0.00E+00   0.98E-04   49  83 1  0.40E-04   0.35   0.00    SX    NO    0:06:22
        2   1    4    0  -662.68334446   -0.51E-07*  0.37E-04   49  83 1  0.14E-04   0.35   0.00    SX    NO    0:01:27
        3   1    4    0  -662.68334447   -0.12E-07*  0.21E-04   49  69 1  0.49E-05   0.35   0.00    SX    NO    0:01:27
        4  14    5    0  -662.68335146   -0.70E-05*  0.79E-04   49  83 1 -0.31E-04   0.35   0.00    SX    NO    0:06:27
        5   1    4    0  -662.68335149   -0.26E-07*  0.12E-03   38  62 1 -0.16E-04   0.35   2.50    LS   YES    0:01:27
        6   6    5    0  -662.68335149   -0.13E-08   0.75E-04   43  65 1  0.32E-04   0.35   0.60    QN   YES    0:03:17
      Convergence after  6 iterations
        7   4    5    0  -662.68335150   -0.12E-07*  0.75E-04   35  64 1 -0.86E-05   0.35   0.60    QN   YES    0:03:07
 
      ************************************************************************************************************************
                                                      Wave function printout:
                       occupation of active orbitals, and spin coupling of open shells (u,d: Spin up or down)
      ************************************************************************************************************************
 
      Note: transformation to natural orbitals
      has been made, which may change the order of the CSFs.
 
      printout of CI-coefficients larger than  0.05 for root  1
      energy=   -7662.897397
      conf/sym  1111111111111     Coeff  Weight
             1  2222222200000  -0.92558 0.85669
          1670  22u222220d000   0.07208 0.00520
          2157  2u222222d0000  -0.08707 0.00758
          2178  2u22222du0d00   0.05245 0.00275
          3137  2222202220000   0.05827 0.00340
          3167  2222202200200   0.06641 0.00441
          5107  2u222d22u0d00   0.08738 0.00764
          7557  2u22d222u0d00  -0.08186 0.00670
          9021  22ud222202000  -0.05373 0.00289
         10491  2202222202000   0.08477 0.00719
         11957  2022222220000   0.13195 0.01741
         11987  2022222200200   0.05984 0.00358
         15197  2u222u22d0d00   0.08247 0.00680
 
      printout of CI-coefficients larger than  0.05 for root  2
      energy=   -7662.717679
      conf/sym  1111111111111     Coeff  Weight
             7  2222222u0d000   0.38588 0.14890
           690  2222u2220d000   0.08428 0.00710
          1679  22u2222d02000   0.08000 0.00640
          2160  2u2222220d000   0.81679 0.66714
          2163  2u22222udd000  -0.07999 0.00640
          2186  2u22222d0ud00  -0.05308 0.00282
          3150  222220220ud00  -0.05176 0.00268
          7061  22u2d22202000   0.06045 0.00365
         10981  2ud2222202000  -0.07678 0.00590
         11958  20222222ud000  -0.17428 0.03037
         11959  2022222u2d000   0.07873 0.00620
         24622  2u2220220d200   0.06333 0.00401
         35580  20222u22dud00  -0.07036 0.00495
 
      printout of CI-coefficients larger than  0.05 for root  3
      energy=   -7662.680509
      conf/sym  1111111111111     Coeff  Weight
             2  2222222ud0000  -0.09944 0.00989
             8  222222u20d000  -0.18228 0.03322
           197  22222u22d0000  -0.72311 0.52289
           198  22222u2d20000   0.08767 0.00769
           218  22222u2du0d00  -0.06607 0.00437
           687  2222u222d0000   0.05070 0.00257
          2157  2u222222d0000   0.14646 0.02145
          2158  2u22222d20000   0.05780 0.00334
          2177  2u22222200d00   0.40093 0.16075
          2178  2u22222du0d00   0.06032 0.00364
          3147  22222022u0d00  -0.05630 0.00317
          3167  2222202200200  -0.10206 0.01042
          3627  2222ud2220000  -0.13752 0.01891
          5107  2u222d22u0d00   0.20101 0.04040
          7557  2u22d222u0d00  -0.08254 0.00681
         11957  2022222220000  -0.12375 0.01532
         11967  20222222u0d00   0.08660 0.00750
         11987  2022222200200   0.12070 0.01457
         14603  22u22u22dd000   0.05481 0.00300
         15197  2u222u22d0d00  -0.07210 0.00520
         33224  22022u22d2000   0.06825 0.00466
         35595  20222u22d0200   0.07556 0.00571
 
      printout of CI-coefficients larger than  0.05 for root  4
      energy=   -7662.676472
      conf/sym  1111111111111     Coeff  Weight
             8  222222u20d000   0.89547 0.80187
           197  22222u22d0000  -0.14853 0.02206
          1190  222u22d202000  -0.05925 0.00351
          1670  22u222220d000  -0.06856 0.00470
          1680  22u222d202000   0.11707 0.01371
          2162  2u2222d2ud000  -0.06713 0.00451
          2164  2u2222u2dd000  -0.09051 0.00819
          2177  2u22222200d00   0.08787 0.00772
          3140  222220u22d000   0.05124 0.00263
          3174  222220u20d200  -0.06283 0.00395
          5117  2u222du2udd00  -0.06760 0.00457
          7567  2u22d2u2udd00   0.06735 0.00454
         11960  202222u22d000   0.13018 0.01695
         11994  202222u20d200  -0.06136 0.00377
         15207  2u222uu2ddd00   0.06499 0.00422
 
      printout of CI-coefficients larger than  0.05 for root  5
      energy=   -7662.662234
      conf/sym  1111111111111     Coeff  Weight
             7  2222222u0d000   0.23285 0.05422
           200  22222u220d000  -0.85616 0.73301
           201  22222u2dud000   0.08946 0.00800
          2160  2u2222220d000  -0.06297 0.00396
          2186  2u22222d0ud00   0.05728 0.00328
          3628  2222ud22ud000  -0.09464 0.00896
          4611  22u22d2202000   0.12103 0.01465
          5098  2u222d22ud000   0.11228 0.01261
          5110  2u222d220ud00   0.15193 0.02308
          7560  2u22d2220ud00  -0.05854 0.00343
         10981  2ud2222202000   0.05613 0.00315
         11958  20222222ud000   0.06263 0.00392
         13427  2222uu22dd000  -0.05264 0.00277
         15191  2u222u22dd000  -0.07007 0.00491
         28527  2u22du22udd00  -0.06134 0.00376
         35575  20222u222d000  -0.09398 0.00883
         35598  20222u220d200   0.08680 0.00753
 
      printout of CI-coefficients larger than  0.05 for root  6
      energy=   -7662.654281
      conf/sym  1111111111111     Coeff  Weight
             1  2222222200000  -0.06421 0.00412
             2  2222222ud0000   0.21752 0.04731
             8  222222u20d000   0.05709 0.00326
           217  22222u2200d00   0.07845 0.00615
           707  2222u22200d00   0.05356 0.00287
          1180  222u22220d000  -0.06908 0.00477
          1387  222u22220000d  -0.06186 0.00383
          1671  22u2222dud000   0.05570 0.00310
          1673  22u2222udd000   0.06968 0.00485
          1877  22u222220000d  -0.06448 0.00416
          2157  2u222222d0000   0.84531 0.71455
          2158  2u22222d20000   0.09911 0.00982
          2177  2u22222200d00  -0.11595 0.01344
          2722  u2222222000d0   0.09084 0.00825
          5097  2u222d2220000  -0.14672 0.02153
          5127  2u222d2200200   0.07706 0.00594
          7547  2u22d22220000  -0.09984 0.00997
         11957  2022222220000   0.13545 0.01835
         11961  2022222202000  -0.05145 0.00265
         11967  20222222u0d00  -0.07347 0.00540
         24619  2u222022d0200   0.06254 0.00391
         70856  2u022222d2000   0.07506 0.00563
 
      printout of CI-coefficients larger than  0.05 for root  7
      energy=   -7662.644975
      conf/sym  1111111111111     Coeff  Weight
             7  2222222u0d000   0.73647 0.54239
           200  22222u220d000   0.22675 0.05141
           690  2222u2220d000   0.27411 0.07514
          1679  22u2222d02000   0.05615 0.00315
          2160  2u2222220d000  -0.34696 0.12038
          3150  222220220ud00   0.07924 0.00628
          4611  22u22d2202000  -0.05056 0.00256
          5110  2u222d220ud00  -0.07145 0.00511
          7548  2u22d222ud000   0.06129 0.00376
          7566  2u22d22uudd00   0.05428 0.00295
          9511  2u2d222202000  -0.05509 0.00304
         10981  2ud2222202000   0.17556 0.03082
         11958  20222222ud000   0.14884 0.02215
         11959  2022222u2d000   0.07943 0.00631
         11970  202222220ud00  -0.08781 0.00771
         11993  2022222u0d200  -0.05886 0.00346
         15191  2u222u22dd000   0.08345 0.00696
 
      printout of CI-coefficients larger than  0.05 for root  8
      energy=   -7662.610034
      conf/sym  1111111111111     Coeff  Weight
             1  2222222200000   0.06019 0.00362
             2  2222222ud0000   0.50082 0.25082
           197  22222u22d0000  -0.37076 0.13746
           687  2222u222d0000  -0.29386 0.08635
          1252  222u2222000d0  -0.05492 0.00302
          1670  22u222220d000  -0.07600 0.00578
          2157  2u222222d0000  -0.22962 0.05273
          2169  2u22222d02000  -0.05894 0.00347
          2177  2u22222200d00  -0.21394 0.04577
          2180  2u22222ud0d00   0.07874 0.00620
          2857  u22222220000d   0.05888 0.00347
          3137  2222202220000  -0.19608 0.03845
          3168  2222202ud0200  -0.05212 0.00272
         11957  2022222220000   0.44509 0.19810
         11967  20222222u0d00  -0.08321 0.00692
         11987  2022222200200  -0.12523 0.01568
         17549  2u22u222d0d00  -0.08306 0.00690
         20483  2uu22222dd000  -0.05215 0.00272
         24603  2u22202220d00   0.10587 0.01121
         28523  2u22du2220d00  -0.05420 0.00294
 
      printout of CI-coefficients larger than  0.05 for root  9
      energy=   -7662.606583
      conf/sym  1111111111111     Coeff  Weight
             3  222222u2d0000   0.88653 0.78593
            22  222222u200d00   0.09200 0.00846
           221  22222uu2d0d00  -0.06414 0.00411
           253  22222ud200200   0.05228 0.00273
          1672  22u222d2ud000   0.13534 0.01832
          1674  22u222u2dd000   0.13869 0.01923
          2159  2u2222d220000   0.19764 0.03906
          2170  2u2222d202000  -0.13625 0.01856
          2181  2u2222u2d0d00   0.05624 0.00316
          3169  222220u2d0200  -0.06923 0.00479
          5109  2u222du220d00  -0.05380 0.00289
         10493  220222u2d2000  -0.05851 0.00342
         11963  202222u2d2000  -0.05217 0.00272
         11989  202222u2d0200  -0.05892 0.00347
         15199  2u222ud220d00  -0.05445 0.00296
 
      Natural orbitals and occupation numbers for root  1
      sym 1:   1.975934   1.903970   1.959896   1.968933   1.982599   1.943960   1.998242   1.996748   0.106143   0.043550
               0.064020   0.029107   0.026897
 
      Natural orbitals and occupation numbers for root  2
      sym 1:   1.976502   1.021913   1.960395   1.973088   1.975424   1.933416   1.999406   1.918637   0.095257   1.020976
               0.066215   0.030236   0.028535
 
      Natural orbitals and occupation numbers for root  3
      sym 1:   1.974003   1.646025   1.956322   1.970796   1.994411   1.261088   1.951808   1.951718   0.797727   0.088658
               0.343770   0.034646   0.029027
 
      Natural orbitals and occupation numbers for root  4
      sym 1:   1.976040   1.875833   1.968919   1.988652   1.978572   1.916895   1.043960   1.998444   0.150455   0.965879
               0.079737   0.029571   0.027043
 
      Natural orbitals and occupation numbers for root  5
      sym 1:   1.979934   1.871597   1.965895   1.977501   1.973971   1.033592   1.999149   1.931846   0.109127   1.011559
               0.085254   0.032417   0.028157
 
      Natural orbitals and occupation numbers for root  6
      sym 1:   1.965981   1.145857   1.945333   1.960395   1.966589   1.941512   1.992978   1.963467   0.890281   0.072574
               0.079184   0.039451   0.036400
 
      Natural orbitals and occupation numbers for root  7
      sym 1:   1.976171   1.830879   1.939988   1.971589   1.912984   1.969686   1.999219   1.096895   0.126680   1.045060
               0.068435   0.031956   0.030460
 
      Natural orbitals and occupation numbers for root  8
      sym 1:   1.970651   1.252328   1.941803   1.959661   1.976962   1.628604   1.998060   1.880047   1.078935   0.074802
               0.166379   0.040834   0.030934
 
      Natural orbitals and occupation numbers for root  9
      sym 1:   1.975029   1.925965   1.966608   1.968525   1.999089   1.956962   1.003833   1.990115   0.994817   0.090431
               0.077836   0.027067   0.023723
 
      ************************************************************************************************************************
      *                                                                                                                      *
      *                                                    Final results                                                     *
      *                                                                                                                      *
      ************************************************************************************************************************
 
 
++    Wave function specifications:
      -----------------------------
 
      Number of closed shell electrons          80
      Number of electrons in active shells      16
      Max number of holes in RAS1 space          0
      Max nr of electrons in RAS3 space          0
      Number of inactive orbitals               40
      Number of active orbitals                 13
      Number of secondary orbitals              79
      Spin quantum number                      0.0
      State symmetry                             1
--
 
++    Orbital specifications:
      -----------------------
 
      Symmetry species                           1
                                                 a
      Frozen orbitals                            0
      Inactive orbitals                         40
      Active orbitals                           13
      RAS1 orbitals                              0
      RAS2 orbitals                             13
      RAS3 orbitals                              0
      Secondary orbitals                        79
      Deleted orbitals                           0
      Number of basis functions                132
--
 
++    CI expansion specifications:
      ----------------------------
 
      Number of CSFs                        429429
      Number of determinants                828828
      Number of root(s) required                 9
      CI roots used                              1     2     3     4     5     6     7     8     9
      weights                                0.111 0.111 0.111 0.111 0.111 0.111 0.111 0.111 0.111
      highest root included in the CI            9
      Root passed to geometry opt.               9
--
 
++    Final optimization conditions:
      ------------------------------
 
      Average CI energy                           -7662.68335151
      RASSCF energy for state  9                  -7662.60658320
      Super-CI energy                                -0.00000001
      RASSCF energy change                            0.00000000
      Max change in MO coefficients               0.158E-03
      Max non-diagonal density matrix element     0.748E-04
      Maximum BLB matrix element                 -0.862E-05
      (orbital pair  35,  64 in symmetry   1)
      Norm of electronic gradient            0.214E+00
--
 
 
      Final state energy(ies):
      ------------------------
 
::    RASSCF root number  1 Total energy:  -7662.89739652
::    RASSCF root number  2 Total energy:  -7662.71767851
::    RASSCF root number  3 Total energy:  -7662.68050908
::    RASSCF root number  4 Total energy:  -7662.67647179
::    RASSCF root number  5 Total energy:  -7662.66223405
::    RASSCF root number  6 Total energy:  -7662.65428141
::    RASSCF root number  7 Total energy:  -7662.64497525
::    RASSCF root number  8 Total energy:  -7662.61003374
::    RASSCF root number  9 Total energy:  -7662.60658320
 
++    Molecular orbitals:
      -------------------
 
      Pseudonatural active orbitals and approximate occupation numbers
 
 
 
 
      Molecular orbitals for symmetry species 1: a  
 
 
      Orbital                 1         2         3         4         5         6         7         8         9        10
      Energy         -1224.1040 -192.8220 -173.0076 -173.0072 -173.0071  -92.2856  -40.4826  -33.8794  -33.8775  -33.8772
      Occ. No.           2.0000    2.0000    2.0000    2.0000    2.0000    2.0000    2.0000    2.0000    2.0000    2.0000
 
     1 C1     1s        -0.0000    0.0000    0.0000   -0.0000    0.0000   -0.0000   -0.0000    0.0000   -0.0000    0.0000
     2 C1     2s        -0.0000    0.0000    0.0000   -0.0000    0.0000   -0.0000   -0.0001    0.0000   -0.0000    0.0000
     3 C1     3s        -0.0000    0.0000    0.0000   -0.0000    0.0000   -0.0000   -0.0000    0.0000   -0.0000    0.0000
     4 C1     2px       -0.0000    0.0000    0.0000   -0.0000   -0.0000   -0.0000   -0.0000    0.0000   -0.0000   -0.0000
     5 C1     3px       -0.0000    0.0000    0.0000   -0.0000    0.0000   -0.0000   -0.0000    0.0000   -0.0000    0.0000
     6 C1     2py        0.0000   -0.0000   -0.0000    0.0000   -0.0000    0.0000    0.0000   -0.0000    0.0000    0.0000
     7 C1     3py        0.0000   -0.0000   -0.0000    0.0000   -0.0000    0.0000    0.0000   -0.0000    0.0000    0.0000
     8 C1     2pz        0.0000   -0.0000   -0.0000    0.0000   -0.0000    0.0000    0.0000   -0.0000    0.0000   -0.0000
     9 C1     3pz        0.0000   -0.0000   -0.0000    0.0000    0.0000    0.0000    0.0000   -0.0000    0.0000   -0.0000
    10 C1     3d2-       0.0000   -0.0000   -0.0000    0.0000    0.0000    0.0000    0.0000   -0.0000    0.0000    0.0000
    11 C1     3d1-      -0.0000    0.0000    0.0000   -0.0000    0.0000   -0.0000   -0.0000    0.0000   -0.0000   -0.0000
    12 C1     3d0        0.0000   -0.0000   -0.0000    0.0000   -0.0000    0.0000    0.0000   -0.0000    0.0000    0.0000
    13 C1     3d1+       0.0000   -0.0000   -0.0000    0.0000    0.0000    0.0000    0.0000   -0.0000    0.0000   -0.0000
    14 C1     3d2+       0.0000    0.0000   -0.0000    0.0000    0.0000   -0.0000    0.0000    0.0000    0.0000   -0.0000
    15 C2     1s         0.0000   -0.0000   -0.0000    0.0000    0.0000    0.0000    0.0000   -0.0000    0.0000    0.0000
    16 C2     2s         0.0000   -0.0000   -0.0000    0.0000    0.0000    0.0000    0.0001   -0.0000    0.0000    0.0000
    17 C2     3s         0.0000   -0.0000   -0.0000    0.0000    0.0000    0.0000    0.0000   -0.0000    0.0000    0.0000
    18 C2     2px       -0.0000   -0.0000    0.0000   -0.0000    0.0000   -0.0000   -0.0000   -0.0000   -0.0000    0.0000
    19 C2     3px       -0.0000    0.0000    0.0000   -0.0000    0.0000   -0.0000   -0.0000   -0.0000   -0.0000    0.0000
    20 C2     2py        0.0000   -0.0000   -0.0000    0.0000   -0.0000    0.0000    0.0000   -0.0000    0.0000   -0.0000
    21 C2     3py        0.0000   -0.0000    0.0000    0.0000   -0.0000    0.0000    0.0000   -0.0000    0.0000   -0.0000
    22 C2     2pz        0.0000   -0.0000   -0.0000    0.0000    0.0000    0.0000    0.0000    0.0000    0.0000   -0.0000
    23 C2     3pz        0.0000   -0.0000   -0.0000    0.0000    0.0000    0.0000    0.0000    0.0000    0.0000    0.0000
    24 C2     3d2-      -0.0000    0.0000   -0.0000   -0.0000    0.0000   -0.0000    0.0000    0.0000   -0.0000    0.0000
    25 C2     3d1-       0.0000   -0.0000   -0.0000    0.0000    0.0000    0.0000    0.0000   -0.0000    0.0000   -0.0000
    26 C2     3d0       -0.0000    0.0000    0.0000   -0.0000   -0.0000   -0.0000   -0.0000    0.0000   -0.0000   -0.0000
    27 C2     3d1+      -0.0000    0.0000   -0.0000    0.0000    0.0000   -0.0000   -0.0000    0.0000    0.0000   -0.0000
    28 C2     3d2+      -0.0000   -0.0000    0.0000   -0.0000    0.0000   -0.0000   -0.0000   -0.0000   -0.0000    0.0000
    29 C3     1s         0.0000    0.0000   -0.0000   -0.0000   -0.0000    0.0000    0.0000    0.0000   -0.0000   -0.0000
    30 C3     2s         0.0000    0.0000   -0.0000   -0.0000   -0.0000    0.0000    0.0000    0.0000   -0.0000   -0.0000
    31 C3     3s         0.0000    0.0000   -0.0000   -0.0000   -0.0000    0.0000    0.0000    0.0000   -0.0000   -0.0000
    32 C3     2px        0.0000   -0.0000   -0.0000   -0.0000   -0.0000   -0.0000    0.0000   -0.0000   -0.0000   -0.0000
    33 C3     3px        0.0000   -0.0000   -0.0000   -0.0000   -0.0000   -0.0000    0.0000   -0.0000   -0.0000    0.0000
    34 C3     2py       -0.0000    0.0000   -0.0000   -0.0000    0.0000    0.0000   -0.0000   -0.0000   -0.0000    0.0000
    35 C3     3py       -0.0000   -0.0000   -0.0000   -0.0000    0.0000    0.0000   -0.0000   -0.0000   -0.0000    0.0000
    36 C3     2pz       -0.0000    0.0000    0.0000    0.0000   -0.0000    0.0000   -0.0000    0.0000    0.0000   -0.0000
    37 C3     3pz       -0.0000    0.0000    0.0000    0.0000   -0.0000    0.0000   -0.0000    0.0000    0.0000    0.0000
    38 C3     3d2-       0.0000   -0.0000   -0.0000   -0.0000    0.0000    0.0000    0.0000   -0.0000   -0.0000   -0.0000
    39 C3     3d1-      -0.0000    0.0000    0.0000   -0.0000    0.0000    0.0000   -0.0000    0.0000   -0.0000   -0.0000
    40 C3     3d0        0.0000   -0.0000   -0.0000    0.0000    0.0000   -0.0000    0.0000   -0.0000    0.0000   -0.0000
    41 C3     3d1+       0.0000   -0.0000   -0.0000   -0.0000   -0.0000    0.0000    0.0000   -0.0000   -0.0000   -0.0000
    42 C3     3d2+      -0.0000    0.0000    0.0000    0.0000   -0.0000   -0.0000   -0.0000    0.0000    0.0000   -0.0000
    43 C4     1s        -0.0000    0.0000    0.0000    0.0000   -0.0000   -0.0000   -0.0000    0.0000    0.0000   -0.0000
    44 C4     2s        -0.0000   -0.0000    0.0000    0.0000   -0.0000   -0.0000   -0.0001   -0.0000    0.0000   -0.0000
    45 C4     3s        -0.0000    0.0000    0.0000    0.0000   -0.0000   -0.0000   -0.0000   -0.0000    0.0000   -0.0000
    46 C4     2px       -0.0000   -0.0000    0.0000    0.0000   -0.0000    0.0000   -0.0001   -0.0000   -0.0000   -0.0000
    47 C4     3px       -0.0000    0.0000    0.0000    0.0000   -0.0000    0.0000   -0.0000    0.0000    0.0000    0.0000
    48 C4     2py       -0.0000   -0.0000    0.0000   -0.0000    0.0000    0.0000   -0.0001   -0.0000   -0.0000    0.0000
    49 C4     3py       -0.0000    0.0000    0.0000   -0.0000    0.0000    0.0000   -0.0000    0.0000   -0.0000   -0.0000
    50 C4     2pz        0.0000    0.0000   -0.0000   -0.0000   -0.0000   -0.0000    0.0000    0.0000   -0.0000   -0.0000
    51 C4     3pz        0.0000   -0.0000   -0.0000   -0.0000   -0.0000    0.0000    0.0000   -0.0000   -0.0000    0.0000
    52 C4     3d2-       0.0000   -0.0000   -0.0000   -0.0000   -0.0000    0.0000    0.0000   -0.0000   -0.0000   -0.0000
    53 C4     3d1-      -0.0000    0.0000    0.0000    0.0000    0.0000   -0.0000   -0.0000    0.0000    0.0000   -0.0000
    54 C4     3d0        0.0000    0.0000   -0.0000   -0.0000   -0.0000    0.0000    0.0000    0.0000   -0.0000   -0.0000
    55 C4     3d1+       0.0000    0.0000   -0.0000   -0.0000    0.0000    0.0000    0.0000   -0.0000    0.0000    0.0000
    56 C4     3d2+       0.0000   -0.0000   -0.0000   -0.0000    0.0000   -0.0000    0.0000   -0.0000   -0.0000    0.0000
    57 S5     1s         0.0000   -0.0000   -0.0000    0.0000   -0.0000   -1.0000    0.0000   -0.0000    0.0000   -0.0000
    58 S5     2s         0.0000   -0.0000   -0.0000    0.0000   -0.0000    0.0000    0.0000   -0.0000    0.0000   -0.0000
    59 S5     3s         0.0000    0.0000   -0.0000    0.0000   -0.0000    0.0004    0.0000    0.0000    0.0000   -0.0000
    60 S5     4s         0.0000   -0.0000   -0.0000    0.0000   -0.0000   -0.0000    0.0000   -0.0000    0.0000   -0.0000
    61 S5     2px        0.0000   -0.0000   -0.0000    0.0000    0.0000   -0.0000    0.0000   -0.0000    0.0000    0.0000
    62 S5     3px        0.0000   -0.0000   -0.0000    0.0000   -0.0000    0.0000    0.0000   -0.0000    0.0000   -0.0000
    63 S5     4px        0.0000   -0.0000   -0.0000    0.0000    0.0000   -0.0000    0.0000   -0.0000    0.0000    0.0000
    64 S5     2py       -0.0000    0.0000    0.0000   -0.0000   -0.0000    0.0001   -0.0000    0.0000   -0.0000   -0.0000
    65 S5     3py       -0.0000   -0.0000    0.0000   -0.0000    0.0000   -0.0000   -0.0000   -0.0000   -0.0000    0.0000
    66 S5     4py       -0.0000   -0.0000    0.0000   -0.0000   -0.0000    0.0000   -0.0000   -0.0000   -0.0000   -0.0000
    67 S5     2pz       -0.0000    0.0000    0.0000   -0.0000    0.0000    0.0000   -0.0000    0.0000   -0.0000    0.0000
    68 S5     3pz       -0.0000    0.0000    0.0000   -0.0000   -0.0000   -0.0000   -0.0000    0.0000   -0.0000   -0.0000
    69 S5     4pz       -0.0000    0.0000    0.0000   -0.0000    0.0000    0.0000   -0.0000    0.0000   -0.0000    0.0000
    70 S5     3d2-       0.0000    0.0000   -0.0000    0.0000    0.0000   -0.0000    0.0000   -0.0000   -0.0000    0.0000
    71 S5     3d1-      -0.0000    0.0000    0.0000    0.0000   -0.0000    0.0000   -0.0000    0.0000    0.0000    0.0000
    72 S5     3d0       -0.0000   -0.0000    0.0000   -0.0000    0.0000    0.0000   -0.0000    0.0000   -0.0000    0.0000
    73 S5     3d1+      -0.0000    0.0000    0.0000   -0.0000   -0.0000    0.0000   -0.0000    0.0000   -0.0000   -0.0000
    74 S5     3d2+       0.0000   -0.0000   -0.0000    0.0000   -0.0000   -0.0000    0.0000   -0.0000    0.0000   -0.0000
    75 H6     1s        -0.0000   -0.0000    0.0000    0.0000    0.0000    0.0000   -0.0000    0.0000   -0.0000    0.0000
    76 H6     2s        -0.0000   -0.0000    0.0000    0.0000    0.0000    0.0000   -0.0000   -0.0000   -0.0000    0.0000
    77 H6     2px       -0.0000   -0.0000    0.0000    0.0000   -0.0000    0.0000   -0.0000   -0.0000    0.0000   -0.0000
    78 H6     2py        0.0000    0.0000   -0.0000    0.0000    0.0000    0.0000    0.0000   -0.0000    0.0000    0.0000
    79 H6     2pz        0.0000    0.0000   -0.0000   -0.0000   -0.0000   -0.0000    0.0000    0.0000    0.0000   -0.0000
    80 H7     1s        -0.0000    0.0000    0.0000   -0.0000    0.0000    0.0000   -0.0000    0.0000    0.0000   -0.0000
    81 H7     2s        -0.0000    0.0000    0.0000   -0.0000    0.0000    0.0000   -0.0000    0.0000   -0.0000   -0.0000
    82 H7     2px        0.0000    0.0000   -0.0000    0.0000   -0.0000    0.0000    0.0000    0.0000    0.0000   -0.0000
    83 H7     2py       -0.0000    0.0000    0.0000   -0.0000    0.0000   -0.0000   -0.0000    0.0000   -0.0000    0.0000
    84 H7     2pz       -0.0000    0.0000    0.0000   -0.0000   -0.0000   -0.0000   -0.0000    0.0000   -0.0000   -0.0000
    85 H8     1s        -0.0000   -0.0000    0.0000    0.0000   -0.0000    0.0000   -0.0000    0.0000    0.0000   -0.0000
    86 H8     2s        -0.0000   -0.0000    0.0000    0.0000   -0.0000    0.0000   -0.0000    0.0000    0.0000   -0.0000
    87 H8     2px        0.0000    0.0000   -0.0000   -0.0000    0.0000   -0.0000    0.0000    0.0000   -0.0000   -0.0000
    88 H8     2py        0.0000   -0.0000   -0.0000    0.0000   -0.0000    0.0000    0.0000   -0.0000    0.0000   -0.0000
    89 H8     2pz       -0.0000   -0.0000    0.0000    0.0000    0.0000    0.0000   -0.0000   -0.0000    0.0000   -0.0000
    90 I9     1s        -1.0000    0.0000    0.0000    0.0000    0.0000   -0.0000    0.0000    0.0000    0.0000    0.0000
    91 I9     2s        -0.0000   -1.0000    0.0000    0.0000   -0.0000   -0.0000    0.0000   -0.0000   -0.0000    0.0000
    92 I9     3s         0.0000   -0.0000   -0.0000   -0.0000    0.0000   -0.0000    1.0000   -0.0001   -0.0000    0.0000
    93 I9     4s         0.0000   -0.0000   -0.0000   -0.0000    0.0000   -0.0000   -0.0000    0.0000    0.0000    0.0000
    94 I9     5s         0.0000   -0.0000   -0.0000   -0.0000    0.0000   -0.0000    0.0001    0.0000   -0.0000    0.0000
    95 I9     6s         0.0000    0.0000   -0.0000   -0.0000    0.0000   -0.0000    0.0000    0.0000    0.0000    0.0000
    96 I9     2px        0.0000    0.0000    0.9030   -0.4297   -0.0013    0.0000    0.0000    0.0000   -0.0000   -0.0000
    97 I9     3px       -0.0000    0.0000    0.0000   -0.0000   -0.0000    0.0000   -0.0001   -0.9007    0.4344    0.0013
    98 I9     4px       -0.0000   -0.0000    0.0000   -0.0000   -0.0000    0.0000   -0.0000   -0.0002    0.0001    0.0000
    99 I9     5px       -0.0000    0.0000    0.0000   -0.0000   -0.0000   -0.0000   -0.0000    0.0000   -0.0000   -0.0000
   100 I9     6px       -0.0000   -0.0000    0.0000   -0.0000   -0.0000   -0.0000   -0.0000   -0.0000   -0.0000   -0.0000
   101 I9     2py        0.0000    0.0000    0.4297    0.9030    0.0009    0.0000    0.0000    0.0000    0.0000    0.0000
   102 I9     3py       -0.0000    0.0000    0.0000    0.0000    0.0000    0.0000   -0.0001   -0.4344   -0.9007   -0.0009
   103 I9     4py       -0.0000   -0.0000    0.0000    0.0000    0.0000    0.0000   -0.0000   -0.0001   -0.0001   -0.0000
   104 I9     5py       -0.0000    0.0000    0.0000    0.0000    0.0000    0.0000   -0.0000    0.0000    0.0000    0.0000
   105 I9     6py       -0.0000   -0.0000    0.0000    0.0000    0.0000    0.0000   -0.0000   -0.0000   -0.0000    0.0000
   106 I9     2pz       -0.0000   -0.0000   -0.0007    0.0014   -1.0000   -0.0000   -0.0000   -0.0000    0.0000   -0.0000
   107 I9     3pz        0.0000   -0.0000   -0.0000    0.0000   -0.0000   -0.0000    0.0000    0.0007   -0.0014    1.0000
   108 I9     4pz        0.0000    0.0000   -0.0000    0.0000   -0.0000   -0.0000    0.0000    0.0000   -0.0000    0.0001
   109 I9     5pz        0.0000   -0.0000   -0.0000    0.0000   -0.0000    0.0000    0.0000   -0.0000    0.0000   -0.0000
   110 I9     6pz       -0.0000    0.0000    0.0000    0.0000   -0.0000    0.0000    0.0000    0.0000   -0.0000   -0.0000
   111 I9     3d2-      -0.0000   -0.0000   -0.0000   -0.0000   -0.0000   -0.0000    0.0001    0.0001    0.0001    0.0000
   112 I9     4d2-       0.0000    0.0000    0.0000    0.0000    0.0000   -0.0000    0.0000    0.0000    0.0000    0.0000
   113 I9     5d2-       0.0000   -0.0000   -0.0000   -0.0000   -0.0000   -0.0000    0.0000   -0.0000   -0.0000   -0.0000
   114 I9     3d1-       0.0000    0.0000    0.0000   -0.0000    0.0000    0.0000   -0.0000   -0.0000    0.0000   -0.0000
   115 I9     4d1-      -0.0000   -0.0000   -0.0000    0.0000   -0.0000    0.0000   -0.0000   -0.0000    0.0000   -0.0000
   116 I9     5d1-      -0.0000    0.0000    0.0000    0.0000    0.0000    0.0000   -0.0000    0.0000   -0.0000    0.0000
   117 I9     3d0        0.0000    0.0000    0.0000    0.0000   -0.0000   -0.0000   -0.0001   -0.0001   -0.0000    0.0000
   118 I9     4d0       -0.0000   -0.0000   -0.0000   -0.0000    0.0000   -0.0000   -0.0000   -0.0000    0.0000    0.0000
   119 I9     5d0       -0.0000    0.0000    0.0000    0.0000   -0.0000   -0.0000   -0.0000    0.0000   -0.0000   -0.0000
   120 I9     3d1+       0.0000    0.0000    0.0000   -0.0000    0.0000   -0.0000   -0.0000   -0.0000    0.0000   -0.0001
   121 I9     4d1+      -0.0000   -0.0000   -0.0000    0.0000   -0.0000   -0.0000   -0.0000   -0.0000    0.0000   -0.0000
   122 I9     5d1+      -0.0000    0.0000    0.0000   -0.0000    0.0000   -0.0000   -0.0000   -0.0000   -0.0000    0.0000
   123 I9     3d2+      -0.0000   -0.0000   -0.0000    0.0000    0.0000    0.0000    0.0001    0.0001   -0.0001   -0.0000
   124 I9     4d2+       0.0000    0.0000    0.0000   -0.0000   -0.0000    0.0000    0.0000    0.0000   -0.0000   -0.0000
   125 I9     5d2+       0.0000   -0.0000   -0.0000    0.0000    0.0000    0.0000    0.0000   -0.0000    0.0000    0.0000
   126 I9     4f3-      -0.0000   -0.0000    0.0000    0.0000   -0.0000    0.0000   -0.0000   -0.0000   -0.0000    0.0000
   127 I9     4f2-       0.0000    0.0000   -0.0000    0.0000   -0.0000   -0.0000    0.0000    0.0000    0.0000    0.0000
   128 I9     4f1-       0.0000    0.0000   -0.0000   -0.0000    0.0000    0.0000    0.0000    0.0000    0.0000   -0.0000
   129 I9     4f0       -0.0000   -0.0000    0.0000   -0.0000    0.0000   -0.0000   -0.0000   -0.0000    0.0000   -0.0000
   130 I9     4f1+       0.0000    0.0000   -0.0000    0.0000    0.0000    0.0000    0.0000    0.0000   -0.0000   -0.0000
   131 I9     4f2+       0.0000    0.0000   -0.0000    0.0000   -0.0000    0.0000    0.0000    0.0000   -0.0000    0.0000
   132 I9     4f3+      -0.0000    0.0000    0.0000   -0.0000   -0.0000   -0.0000   -0.0000   -0.0000    0.0000    0.0000
 
 
      Orbital                11        12        13        14        15        16        17        18        19        20
      Energy           -23.9216  -23.9209  -23.9206  -23.9188  -23.9188  -11.2586  -11.2544  -11.2476  -11.2412   -9.0503
      Occ. No.           2.0000    2.0000    2.0000    2.0000    2.0000    2.0000    2.0000    2.0000    2.0000    2.0000
 
     1 C1     1s        -0.0000   -0.0000   -0.0000    0.0000    0.0000   -0.0040   -0.9954    0.0912   -0.0043   -0.0004
     2 C1     2s        -0.0000   -0.0000   -0.0000    0.0000    0.0000   -0.0002    0.0040   -0.0013    0.0001    0.0002
     3 C1     3s        -0.0000   -0.0000   -0.0000    0.0000    0.0000   -0.0000    0.0036   -0.0006    0.0001   -0.0004
     4 C1     2px       -0.0000   -0.0000    0.0000   -0.0000    0.0000    0.0001    0.0004   -0.0005    0.0000    0.0003
     5 C1     3px       -0.0000   -0.0000    0.0000   -0.0000    0.0000    0.0001    0.0003   -0.0001    0.0000   -0.0003
     6 C1     2py       -0.0000   -0.0000    0.0000   -0.0000    0.0000   -0.0000    0.0007    0.0006    0.0000    0.0011
     7 C1     3py       -0.0000   -0.0000    0.0000    0.0000    0.0000    0.0001    0.0003    0.0002    0.0000   -0.0003
     8 C1     2pz       -0.0000    0.0000    0.0000   -0.0000    0.0000   -0.0000    0.0000    0.0000   -0.0000    0.0000
     9 C1     3pz       -0.0000    0.0000    0.0000   -0.0000    0.0000    0.0000   -0.0000    0.0000    0.0000    0.0000
    10 C1     3d2-      -0.0000    0.0000    0.0000   -0.0000    0.0000   -0.0000    0.0002    0.0002    0.0000    0.0002
    11 C1     3d1-       0.0000   -0.0000    0.0000   -0.0000   -0.0000    0.0000   -0.0000   -0.0000    0.0000   -0.0000
    12 C1     3d0        0.0000    0.0000    0.0000   -0.0000   -0.0000    0.0000    0.0000   -0.0000   -0.0000    0.0002
    13 C1     3d1+       0.0000    0.0000    0.0000   -0.0000   -0.0000    0.0000    0.0000    0.0000   -0.0000    0.0000
    14 C1     3d2+      -0.0000    0.0000    0.0000   -0.0000    0.0000   -0.0001   -0.0000    0.0001    0.0000   -0.0001
    15 C2     1s        -0.0000    0.0000    0.0000    0.0000   -0.0000    0.0009   -0.0913   -0.9922    0.0790    0.0001
    16 C2     2s        -0.0000    0.0000    0.0000    0.0000   -0.0000    0.0001   -0.0010    0.0036   -0.0013   -0.0002
    17 C2     3s        -0.0000   -0.0000    0.0000    0.0000   -0.0000    0.0000   -0.0001    0.0035   -0.0006    0.0001
    18 C2     2px        0.0000   -0.0000   -0.0000    0.0000   -0.0000   -0.0001    0.0007   -0.0000   -0.0010    0.0002
    19 C2     3px        0.0000   -0.0000   -0.0000    0.0000   -0.0000   -0.0000    0.0001    0.0000   -0.0003    0.0001
    20 C2     2py        0.0000    0.0000    0.0000   -0.0000    0.0000    0.0001   -0.0011    0.0001   -0.0002   -0.0000
    21 C2     3py        0.0000    0.0000    0.0000   -0.0000    0.0000   -0.0000   -0.0003    0.0002   -0.0001    0.0002
    22 C2     2pz        0.0000    0.0000    0.0000    0.0000    0.0000    0.0000   -0.0000    0.0000    0.0000   -0.0000
    23 C2     3pz        0.0000    0.0000    0.0000    0.0000    0.0000    0.0000   -0.0000    0.0000    0.0000    0.0000
    24 C2     3d2-       0.0000   -0.0000   -0.0000    0.0000   -0.0000    0.0000    0.0004   -0.0000   -0.0001   -0.0000
    25 C2     3d1-      -0.0000    0.0000    0.0000    0.0000    0.0000   -0.0000   -0.0000   -0.0000    0.0000    0.0000
    26 C2     3d0        0.0000   -0.0000   -0.0000   -0.0000    0.0000    0.0000    0.0001    0.0001    0.0000   -0.0000
    27 C2     3d1+       0.0000   -0.0000    0.0000    0.0000    0.0000   -0.0000    0.0000    0.0000    0.0000    0.0000
    28 C2     3d2+      -0.0000   -0.0000    0.0000    0.0000   -0.0000    0.0000    0.0000    0.0000   -0.0003   -0.0001
    29 C3     1s        -0.0000   -0.0000   -0.0000   -0.0000   -0.0000    0.0345   -0.0031   -0.0791   -0.9957    0.0001
    30 C3     2s         0.0000   -0.0000   -0.0000   -0.0000   -0.0000    0.0010   -0.0002   -0.0007    0.0038   -0.0001
    31 C3     3s        -0.0000   -0.0000   -0.0000   -0.0000   -0.0000    0.0001   -0.0000   -0.0000    0.0036    0.0002
    32 C3     2px        0.0000   -0.0000   -0.0000   -0.0000   -0.0000   -0.0000    0.0002    0.0009   -0.0001   -0.0002
    33 C3     3px        0.0000   -0.0000   -0.0000   -0.0000   -0.0000   -0.0002    0.0001    0.0003   -0.0001   -0.0002
    34 C3     2py       -0.0000   -0.0000   -0.0000    0.0000   -0.0000    0.0012   -0.0001    0.0003    0.0000   -0.0001
    35 C3     3py       -0.0000   -0.0000    0.0000    0.0000   -0.0000    0.0002   -0.0000    0.0001    0.0002    0.0002
    36 C3     2pz       -0.0000   -0.0000   -0.0000   -0.0000   -0.0000    0.0000   -0.0000   -0.0000    0.0000    0.0000
    37 C3     3pz       -0.0000    0.0000   -0.0000   -0.0000   -0.0000    0.0000   -0.0000   -0.0000    0.0000    0.0000
    38 C3     3d2-       0.0000   -0.0000   -0.0000   -0.0000   -0.0000    0.0001   -0.0000   -0.0002    0.0000   -0.0000
    39 C3     3d1-      -0.0000   -0.0000   -0.0000   -0.0000   -0.0000    0.0000    0.0000    0.0000   -0.0000    0.0000
    40 C3     3d0        0.0000    0.0000   -0.0000   -0.0000    0.0000   -0.0001   -0.0000    0.0000    0.0001   -0.0000
    41 C3     3d1+       0.0000    0.0000    0.0000    0.0000    0.0000    0.0000   -0.0000    0.0000    0.0000    0.0000
    42 C3     3d2+       0.0000   -0.0000    0.0000   -0.0000    0.0000   -0.0003   -0.0000   -0.0003    0.0001   -0.0001
    43 C4     1s        -0.0000    0.0000    0.0000   -0.0000    0.0000    0.9991   -0.0038    0.0039    0.0344   -0.0003
    44 C4     2s        -0.0000    0.0000    0.0000   -0.0000    0.0000   -0.0038    0.0000   -0.0001   -0.0012    0.0003
    45 C4     3s         0.0000    0.0000    0.0000   -0.0000    0.0000   -0.0033    0.0000    0.0000   -0.0004   -0.0004
    46 C4     2px       -0.0000   -0.0000    0.0000   -0.0000   -0.0000    0.0003   -0.0001   -0.0001   -0.0001   -0.0005
    47 C4     3px        0.0000    0.0000    0.0000   -0.0000   -0.0000    0.0006   -0.0000   -0.0001   -0.0000    0.0005
    48 C4     2py       -0.0000    0.0000   -0.0000   -0.0000   -0.0000   -0.0007    0.0000    0.0001    0.0007    0.0011
    49 C4     3py        0.0000   -0.0000   -0.0000   -0.0000   -0.0000   -0.0001   -0.0000    0.0001    0.0002   -0.0001
    50 C4     2pz       -0.0000    0.0000    0.0000    0.0000   -0.0000   -0.0000    0.0000    0.0000    0.0000    0.0000
    51 C4     3pz        0.0000   -0.0000    0.0000    0.0000   -0.0000   -0.0000   -0.0000    0.0000    0.0000   -0.0000
    52 C4     3d2-       0.0000    0.0000   -0.0000   -0.0000    0.0000    0.0001    0.0000   -0.0000   -0.0001   -0.0001
    53 C4     3d1-      -0.0000    0.0000    0.0000   -0.0000   -0.0000    0.0000   -0.0000   -0.0000   -0.0000   -0.0000
    54 C4     3d0       -0.0000   -0.0000   -0.0000   -0.0000    0.0000   -0.0000   -0.0000   -0.0000    0.0000    0.0001
    55 C4     3d1+      -0.0000    0.0000    0.0000    0.0000    0.0000    0.0000   -0.0000   -0.0000   -0.0000    0.0000
    56 C4     3d2+       0.0000   -0.0000    0.0000   -0.0000   -0.0000   -0.0001    0.0001    0.0001    0.0002    0.0001
    57 S5     1s         0.0000    0.0000   -0.0000   -0.0000   -0.0000    0.0000   -0.0000   -0.0000   -0.0000    0.0000
    58 S5     2s         0.0000    0.0000   -0.0000   -0.0000   -0.0000    0.0004   -0.0004   -0.0000   -0.0000    0.9999
    59 S5     3s         0.0000    0.0000   -0.0000   -0.0000   -0.0000    0.0011   -0.0010   -0.0002   -0.0002    0.0073
    60 S5     4s         0.0000    0.0000   -0.0000   -0.0000   -0.0000    0.0005   -0.0005   -0.0001   -0.0001   -0.0003
    61 S5     2px        0.0000   -0.0000   -0.0000    0.0000    0.0000    0.0001    0.0001   -0.0000    0.0000    0.0012
    62 S5     3px       -0.0000    0.0000    0.0000    0.0000   -0.0000   -0.0000    0.0000   -0.0000   -0.0002    0.0008
    63 S5     4px       -0.0000   -0.0000   -0.0000    0.0000   -0.0000    0.0003    0.0002   -0.0000   -0.0000   -0.0002
    64 S5     2py       -0.0000   -0.0000    0.0000   -0.0000    0.0000   -0.0001    0.0001   -0.0000    0.0000   -0.0051
    65 S5     3py       -0.0000   -0.0000    0.0000   -0.0000    0.0000    0.0004   -0.0007    0.0004    0.0002   -0.0040
    66 S5     4py       -0.0000   -0.0000    0.0000   -0.0000    0.0000   -0.0001    0.0003    0.0000    0.0001    0.0007
    67 S5     2pz       -0.0000    0.0000   -0.0000    0.0000    0.0000   -0.0000    0.0000    0.0000    0.0000   -0.0000
    68 S5     3pz        0.0000   -0.0000    0.0000    0.0000    0.0000    0.0000   -0.0000    0.0000    0.0000   -0.0000
    69 S5     4pz        0.0000   -0.0000   -0.0000    0.0000    0.0000   -0.0000   -0.0000    0.0000    0.0000    0.0000
    70 S5     3d2-       0.0000    0.0000    0.0000   -0.0000    0.0000   -0.0001   -0.0000   -0.0000    0.0000    0.0000
    71 S5     3d1-      -0.0000    0.0000    0.0000   -0.0000   -0.0000    0.0000    0.0000   -0.0000   -0.0000    0.0000
    72 S5     3d0        0.0000   -0.0000    0.0000   -0.0000    0.0000    0.0001   -0.0001    0.0000    0.0000   -0.0006
    73 S5     3d1+       0.0000   -0.0000   -0.0000    0.0000    0.0000    0.0000   -0.0000    0.0000    0.0000   -0.0000
    74 S5     3d2+      -0.0000    0.0000   -0.0000    0.0000   -0.0000   -0.0000   -0.0000    0.0000   -0.0000    0.0001
    75 H6     1s        -0.0000    0.0000   -0.0000    0.0000   -0.0000    0.0001   -0.0012   -0.0000   -0.0001    0.0001
    76 H6     2s        -0.0000   -0.0000   -0.0000    0.0000   -0.0000    0.0001   -0.0001   -0.0000   -0.0000    0.0000
    77 H6     2px       -0.0000    0.0000   -0.0000    0.0000   -0.0000    0.0000   -0.0003   -0.0000   -0.0000    0.0001
    78 H6     2py        0.0000    0.0000   -0.0000   -0.0000   -0.0000   -0.0000    0.0000    0.0000    0.0000    0.0002
    79 H6     2pz        0.0000    0.0000   -0.0000    0.0000    0.0000   -0.0000    0.0000    0.0000    0.0000   -0.0000
    80 H7     1s         0.0000   -0.0000   -0.0000   -0.0000   -0.0000   -0.0000   -0.0001   -0.0010   -0.0000    0.0004
    81 H7     2s         0.0000   -0.0000    0.0000   -0.0000   -0.0000   -0.0000   -0.0000   -0.0002   -0.0000    0.0001
    82 H7     2px        0.0000    0.0000    0.0000   -0.0000    0.0000    0.0000   -0.0000   -0.0001   -0.0000    0.0000
    83 H7     2py        0.0000   -0.0000   -0.0000    0.0000   -0.0000   -0.0000   -0.0001   -0.0003   -0.0000   -0.0000
    84 H7     2pz        0.0000   -0.0000    0.0000   -0.0000   -0.0000   -0.0000   -0.0000   -0.0000   -0.0000   -0.0000
    85 H8     1s        -0.0000    0.0000    0.0000   -0.0000    0.0000    0.0003   -0.0001   -0.0003   -0.0011    0.0005
    86 H8     2s        -0.0000    0.0000    0.0000   -0.0000    0.0000    0.0001   -0.0001   -0.0001   -0.0002    0.0001
    87 H8     2px        0.0000    0.0000    0.0000   -0.0000    0.0000   -0.0000    0.0000    0.0000    0.0002   -0.0000
    88 H8     2py       -0.0000    0.0000   -0.0000    0.0000    0.0000    0.0001   -0.0000   -0.0000   -0.0002    0.0000
    89 H8     2pz       -0.0000   -0.0000    0.0000   -0.0000   -0.0000    0.0000   -0.0000   -0.0000   -0.0000    0.0000
    90 I9     1s        -0.0000   -0.0000   -0.0000    0.0000   -0.0000    0.0000    0.0000    0.0000    0.0000   -0.0000
    91 I9     2s        -0.0000    0.0000   -0.0000    0.0000   -0.0000    0.0000    0.0000    0.0000    0.0000   -0.0000
    92 I9     3s        -0.0001    0.0000    0.0000    0.0000   -0.0000    0.0000    0.0000    0.0000    0.0000   -0.0000
    93 I9     4s         0.0001   -0.0000   -0.0000    0.0000    0.0000    0.0001    0.0000    0.0000    0.0000   -0.0000
    94 I9     5s         0.0000   -0.0000   -0.0000    0.0000    0.0000    0.0003    0.0000   -0.0000    0.0000   -0.0001
    95 I9     6s         0.0000   -0.0000   -0.0000    0.0000    0.0000    0.0001   -0.0000   -0.0000   -0.0000   -0.0000
    96 I9     2px        0.0000   -0.0000    0.0000    0.0000    0.0000   -0.0000   -0.0000    0.0000    0.0000    0.0000
    97 I9     3px        0.0001   -0.0000    0.0000    0.0000    0.0000   -0.0000   -0.0000    0.0000    0.0000    0.0000
    98 I9     4px       -0.0000    0.0000   -0.0000   -0.0000   -0.0000   -0.0001   -0.0000    0.0000   -0.0000    0.0000
    99 I9     5px        0.0000    0.0000    0.0000   -0.0000   -0.0000    0.0005   -0.0000    0.0000    0.0002   -0.0002
   100 I9     6px        0.0000   -0.0000    0.0000   -0.0000   -0.0000   -0.0001    0.0000    0.0000    0.0000   -0.0000
   101 I9     2py        0.0000    0.0000   -0.0000   -0.0000    0.0000   -0.0000   -0.0000   -0.0000   -0.0000    0.0000
   102 I9     3py        0.0000    0.0001   -0.0000   -0.0000    0.0000   -0.0000   -0.0000   -0.0000   -0.0000    0.0000
   103 I9     4py       -0.0000   -0.0000    0.0000    0.0000   -0.0000   -0.0000   -0.0000   -0.0000   -0.0000    0.0000
   104 I9     5py       -0.0000    0.0000   -0.0000   -0.0000   -0.0000    0.0001   -0.0001   -0.0000    0.0001    0.0003
   105 I9     6py        0.0000    0.0000   -0.0000    0.0000   -0.0000   -0.0000   -0.0000   -0.0000   -0.0000   -0.0000
   106 I9     2pz       -0.0000    0.0000    0.0000    0.0000    0.0000    0.0000   -0.0000   -0.0000   -0.0000   -0.0000
   107 I9     3pz       -0.0000    0.0000    0.0001    0.0000    0.0000    0.0000   -0.0000   -0.0000   -0.0000   -0.0000
   108 I9     4pz        0.0000   -0.0000   -0.0000   -0.0000   -0.0000    0.0000    0.0000   -0.0000    0.0000   -0.0000
   109 I9     5pz       -0.0000    0.0000    0.0000   -0.0000    0.0000   -0.0000   -0.0000   -0.0000   -0.0000    0.0000
   110 I9     6pz       -0.0000    0.0000    0.0000   -0.0000    0.0000    0.0000   -0.0000   -0.0000   -0.0000    0.0000
   111 I9     3d2-       0.7065    0.6158   -0.0003    0.0015   -0.3487    0.0000    0.0000   -0.0000    0.0000   -0.0000
   112 I9     4d2-       0.0000    0.0000   -0.0000    0.0000   -0.0000    0.0000    0.0000   -0.0000    0.0000   -0.0000
   113 I9     5d2-      -0.0000   -0.0000    0.0000   -0.0000    0.0000    0.0000    0.0000    0.0000   -0.0000   -0.0000
   114 I9     3d1-      -0.0007   -0.0000    0.4354    0.9002    0.0022   -0.0000   -0.0000   -0.0000   -0.0000    0.0000
   115 I9     4d1-      -0.0000   -0.0000    0.0000    0.0000    0.0000   -0.0000   -0.0000   -0.0000   -0.0000    0.0000
   116 I9     5d1-       0.0000    0.0000   -0.0000   -0.0000   -0.0000   -0.0000   -0.0000   -0.0000    0.0000   -0.0000
   117 I9     3d0       -0.4460    0.0049   -0.0013    0.0024   -0.8950   -0.0000   -0.0000    0.0000   -0.0000    0.0000
   118 I9     4d0       -0.0000    0.0000   -0.0000    0.0000   -0.0000   -0.0000   -0.0000    0.0000   -0.0000    0.0000
   119 I9     5d0        0.0000    0.0000    0.0000   -0.0000    0.0000    0.0000    0.0000    0.0000    0.0000   -0.0000
   120 I9     3d1+      -0.0010    0.0016    0.9002   -0.4354   -0.0019   -0.0000   -0.0000    0.0000   -0.0000    0.0000
   121 I9     4d1+      -0.0000    0.0000    0.0000   -0.0000   -0.0000   -0.0000   -0.0000    0.0000   -0.0000    0.0000
   122 I9     5d1+       0.0000   -0.0000   -0.0000    0.0000    0.0000    0.0000    0.0000    0.0000    0.0000   -0.0000
   123 I9     3d2+       0.5494   -0.7879    0.0015    0.0003   -0.2781    0.0000    0.0000   -0.0000    0.0000   -0.0000
   124 I9     4d2+       0.0000   -0.0000    0.0000    0.0000   -0.0000    0.0000    0.0000    0.0000    0.0000   -0.0000
   125 I9     5d2+      -0.0000    0.0000   -0.0000   -0.0000    0.0000   -0.0000   -0.0000   -0.0000   -0.0000    0.0001
   126 I9     4f3-      -0.0000   -0.0000   -0.0000   -0.0000    0.0000   -0.0000   -0.0000    0.0000    0.0000   -0.0000
   127 I9     4f2-       0.0000   -0.0000   -0.0000   -0.0000   -0.0000    0.0000    0.0000   -0.0000   -0.0000    0.0000
   128 I9     4f1-       0.0000    0.0000    0.0000   -0.0000    0.0000   -0.0000   -0.0000   -0.0000   -0.0000   -0.0000
   129 I9     4f0       -0.0000    0.0000    0.0000    0.0000   -0.0000    0.0000    0.0000    0.0000    0.0000   -0.0000
   130 I9     4f1+       0.0000   -0.0000    0.0000   -0.0000    0.0000   -0.0000   -0.0000   -0.0000   -0.0000    0.0000
   131 I9     4f2+       0.0000   -0.0000   -0.0000    0.0000    0.0000   -0.0000   -0.0000   -0.0000   -0.0000    0.0000
   132 I9     4f3+      -0.0000    0.0000   -0.0000    0.0000    0.0000    0.0000   -0.0000    0.0000   -0.0000   -0.0000
 
 
      Orbital                21        22        23        24        25        26        27        28        29        30
      Energy            -7.7470   -6.6815   -6.6804   -6.6787   -5.5817   -5.5760   -5.5750   -2.3032   -2.2996   -2.2985
      Occ. No.           2.0000    2.0000    2.0000    2.0000    2.0000    2.0000    2.0000    2.0000    2.0000    2.0000
 
     1 C1     1s         0.0000   -0.0005    0.0004   -0.0000    0.0000    0.0000    0.0000    0.0000    0.0000    0.0000
     2 C1     2s         0.0003   -0.0000   -0.0007   -0.0000    0.0003    0.0002    0.0000   -0.0001    0.0001    0.0000
     3 C1     3s         0.0002   -0.0009    0.0005   -0.0000    0.0002    0.0001    0.0000    0.0001    0.0000    0.0000
     4 C1     2px        0.0002    0.0006   -0.0006   -0.0000    0.0002    0.0001    0.0000   -0.0001   -0.0000    0.0000
     5 C1     3px        0.0002   -0.0006    0.0005    0.0000    0.0002    0.0001    0.0000    0.0000    0.0000   -0.0000
     6 C1     2py       -0.0001    0.0010   -0.0029    0.0000    0.0001   -0.0001   -0.0000    0.0002   -0.0000   -0.0000
     7 C1     3py       -0.0001   -0.0011   -0.0003   -0.0000    0.0001   -0.0001   -0.0000    0.0003   -0.0000    0.0000
     8 C1     2pz       -0.0000    0.0000   -0.0000   -0.0001   -0.0000   -0.0000    0.0000    0.0000   -0.0000    0.0000
     9 C1     3pz       -0.0000   -0.0000   -0.0000    0.0002   -0.0000   -0.0000    0.0000    0.0000   -0.0000   -0.0001
    10 C1     3d2-      -0.0000    0.0000   -0.0004   -0.0000    0.0000   -0.0000    0.0000    0.0001   -0.0000   -0.0000
    11 C1     3d1-       0.0000   -0.0000    0.0000   -0.0000    0.0000    0.0000    0.0000   -0.0000    0.0000   -0.0000
    12 C1     3d0       -0.0000    0.0001    0.0000   -0.0000   -0.0000   -0.0000   -0.0000    0.0000   -0.0000   -0.0000
    13 C1     3d1+      -0.0000    0.0000   -0.0000    0.0000    0.0000   -0.0000    0.0000    0.0000   -0.0000   -0.0000
    14 C1     3d2+       0.0000   -0.0001    0.0002   -0.0000   -0.0000   -0.0000    0.0000   -0.0000   -0.0000   -0.0000
    15 C2     1s        -0.0001    0.0002   -0.0002   -0.0000    0.0000    0.0000    0.0000    0.0001   -0.0000   -0.0000
    16 C2     2s        -0.0006    0.0010   -0.0004   -0.0000    0.0003    0.0001    0.0000    0.0002   -0.0001   -0.0000
    17 C2     3s        -0.0002    0.0005   -0.0004   -0.0000    0.0002    0.0000    0.0000    0.0001   -0.0000   -0.0000
    18 C2     2px       -0.0000    0.0012    0.0000   -0.0000    0.0003    0.0002    0.0000   -0.0004    0.0001   -0.0000
    19 C2     3px        0.0000    0.0007    0.0002   -0.0000    0.0001    0.0001    0.0000   -0.0003    0.0000   -0.0000
    20 C2     2py       -0.0001    0.0002    0.0002    0.0000    0.0001   -0.0001   -0.0000   -0.0002   -0.0001   -0.0000
    21 C2     3py       -0.0001    0.0002   -0.0002   -0.0000    0.0000   -0.0000   -0.0000   -0.0001   -0.0001    0.0000
    22 C2     2pz       -0.0000   -0.0000    0.0000   -0.0002   -0.0000   -0.0000    0.0001    0.0000   -0.0000   -0.0000
    23 C2     3pz       -0.0000   -0.0000   -0.0000   -0.0000   -0.0000   -0.0000    0.0000    0.0000   -0.0000   -0.0001
    24 C2     3d2-       0.0000    0.0001    0.0001   -0.0000   -0.0000    0.0000   -0.0000    0.0000    0.0000    0.0000
    25 C2     3d1-      -0.0000   -0.0000   -0.0000   -0.0000    0.0000   -0.0000    0.0000    0.0000   -0.0000    0.0000
    26 C2     3d0        0.0000   -0.0000    0.0000   -0.0000   -0.0000   -0.0000   -0.0000   -0.0000    0.0000    0.0000
    27 C2     3d1+       0.0000    0.0000   -0.0000    0.0000   -0.0000   -0.0000    0.0000    0.0000    0.0000   -0.0001
    28 C2     3d2+       0.0000   -0.0001    0.0001    0.0000    0.0000    0.0000    0.0000   -0.0000    0.0000   -0.0000
    29 C3     1s         0.0000   -0.0002   -0.0002    0.0000   -0.0000    0.0000    0.0000   -0.0002   -0.0001    0.0000
    30 C3     2s         0.0002   -0.0011   -0.0007    0.0000   -0.0005    0.0003    0.0000   -0.0002   -0.0004    0.0000
    31 C3     3s         0.0000   -0.0006   -0.0006    0.0000   -0.0001    0.0001    0.0000   -0.0003   -0.0003    0.0000
    32 C3     2px       -0.0004    0.0012   -0.0001   -0.0000   -0.0001    0.0004    0.0000    0.0002   -0.0003    0.0000
    33 C3     3px       -0.0003    0.0007   -0.0000   -0.0000   -0.0000    0.0003   -0.0000   -0.0000   -0.0002    0.0000
    34 C3     2py        0.0001    0.0004   -0.0000    0.0000   -0.0001    0.0002   -0.0000    0.0005    0.0002   -0.0000
    35 C3     3py        0.0000    0.0000   -0.0004    0.0000    0.0001    0.0001    0.0000    0.0001    0.0001   -0.0000
    36 C3     2pz        0.0000   -0.0000    0.0000   -0.0002    0.0000   -0.0000    0.0001    0.0000    0.0000    0.0001
    37 C3     3pz        0.0000   -0.0000   -0.0000   -0.0000    0.0000   -0.0000   -0.0000    0.0000    0.0000    0.0003
    38 C3     3d2-      -0.0001    0.0001    0.0000   -0.0000   -0.0000   -0.0000    0.0000    0.0003    0.0000   -0.0000
    39 C3     3d1-       0.0000   -0.0000   -0.0000   -0.0000    0.0000    0.0000    0.0000   -0.0000    0.0000   -0.0000
    40 C3     3d0       -0.0000    0.0000    0.0000   -0.0000   -0.0000   -0.0000    0.0000    0.0001   -0.0001   -0.0000
    41 C3     3d1+      -0.0000    0.0000   -0.0000   -0.0000   -0.0000    0.0000   -0.0000    0.0000   -0.0000    0.0000
    42 C3     3d2+       0.0000   -0.0001    0.0001   -0.0000    0.0000   -0.0001   -0.0000   -0.0000   -0.0001   -0.0000
    43 C4     1s         0.0001    0.0005    0.0003   -0.0000   -0.0001   -0.0000    0.0000   -0.0012   -0.0001    0.0000
    44 C4     2s         0.0002   -0.0006   -0.0004    0.0000    0.0013   -0.0000   -0.0000    0.0056    0.0005    0.0000
    45 C4     3s         0.0003    0.0010    0.0004    0.0000   -0.0001   -0.0000    0.0000   -0.0014   -0.0002   -0.0000
    46 C4     2px        0.0003    0.0003    0.0013   -0.0000    0.0018   -0.0003    0.0000    0.0033    0.0010   -0.0000
    47 C4     3px        0.0005   -0.0011   -0.0004    0.0000    0.0000   -0.0001   -0.0000   -0.0013    0.0001    0.0000
    48 C4     2py        0.0001   -0.0012   -0.0023    0.0000    0.0011    0.0003   -0.0000    0.0025   -0.0013    0.0000
    49 C4     3py        0.0003    0.0006   -0.0007   -0.0000    0.0000    0.0002    0.0000   -0.0008   -0.0002   -0.0000
    50 C4     2pz       -0.0000   -0.0000   -0.0000   -0.0002   -0.0000    0.0000    0.0002   -0.0000   -0.0000   -0.0023
    51 C4     3pz       -0.0000    0.0000   -0.0000    0.0002   -0.0000    0.0000   -0.0001    0.0000   -0.0000    0.0001
    52 C4     3d2-      -0.0001    0.0000    0.0003   -0.0000   -0.0000    0.0000   -0.0000    0.0012   -0.0005    0.0000
    53 C4     3d1-       0.0000   -0.0000   -0.0000   -0.0001    0.0000   -0.0000    0.0000   -0.0000   -0.0000   -0.0005
    54 C4     3d0       -0.0001   -0.0000    0.0000   -0.0000   -0.0000    0.0000   -0.0000   -0.0008   -0.0000    0.0000
    55 C4     3d1+      -0.0000   -0.0000    0.0000    0.0000   -0.0000    0.0000    0.0001   -0.0000   -0.0000   -0.0009
    56 C4     3d2+      -0.0000    0.0001   -0.0002   -0.0000    0.0000   -0.0000    0.0000    0.0007    0.0009   -0.0000
    57 S5     1s        -0.0000    0.0000    0.0001    0.0000   -0.0000   -0.0000   -0.0000   -0.0000    0.0000    0.0000
    58 S5     2s        -0.0000    0.0002    0.0059   -0.0000   -0.0001   -0.0001   -0.0000   -0.0002    0.0002    0.0000
    59 S5     3s        -0.0001    0.0002   -0.0005    0.0000   -0.0005   -0.0003   -0.0000    0.0002    0.0005    0.0000
    60 S5     4s        -0.0001    0.0000    0.0013    0.0000   -0.0000   -0.0002   -0.0000   -0.0002    0.0002    0.0000
    61 S5     2px       -0.0000   -0.9812   -0.1923   -0.0013   -0.0000   -0.0000    0.0000   -0.0000    0.0001    0.0000
    62 S5     3px       -0.0003   -0.0124   -0.0018   -0.0000   -0.0002   -0.0002    0.0000    0.0018    0.0006    0.0000
    63 S5     4px       -0.0002    0.0002    0.0000   -0.0000    0.0000   -0.0002   -0.0000    0.0003    0.0001    0.0000
    64 S5     2py        0.0000   -0.1923    0.9811    0.0009    0.0000    0.0000   -0.0000    0.0001    0.0000   -0.0000
    65 S5     3py       -0.0000   -0.0028    0.0110    0.0000    0.0003   -0.0000   -0.0000    0.0001   -0.0002   -0.0000
    66 S5     4py        0.0000    0.0001   -0.0003    0.0000    0.0001    0.0000    0.0000    0.0004    0.0001   -0.0000
    67 S5     2pz        0.0000    0.0011    0.0012   -1.0000    0.0000    0.0000    0.0000    0.0000   -0.0000    0.0000
    68 S5     3pz        0.0000    0.0000    0.0000   -0.0073    0.0000    0.0000    0.0002   -0.0000   -0.0000    0.0002
    69 S5     4pz        0.0000   -0.0000   -0.0000   -0.0005    0.0000    0.0000   -0.0000    0.0000   -0.0000    0.0003
    70 S5     3d2-      -0.0000    0.0019    0.0002    0.0000    0.0000   -0.0000   -0.0000   -0.0003   -0.0001   -0.0000
    71 S5     3d1-       0.0000   -0.0000   -0.0000    0.0005   -0.0000    0.0000   -0.0000    0.0000   -0.0000   -0.0000
    72 S5     3d0        0.0000    0.0000    0.0007    0.0000    0.0000    0.0000   -0.0000   -0.0000    0.0001   -0.0000
    73 S5     3d1+       0.0000    0.0000    0.0000   -0.0001    0.0000    0.0000   -0.0000   -0.0000    0.0000    0.0000
    74 S5     3d2+      -0.0001   -0.0010    0.0007    0.0000    0.0000   -0.0000   -0.0000    0.0003   -0.0000    0.0000
    75 H6     1s         0.0001   -0.0007    0.0002   -0.0000    0.0001    0.0000    0.0000    0.0003    0.0001    0.0000
    76 H6     2s         0.0000   -0.0001    0.0000   -0.0000    0.0001   -0.0000   -0.0000    0.0002    0.0000    0.0000
    77 H6     2px        0.0000    0.0000   -0.0001   -0.0000    0.0000   -0.0000   -0.0000    0.0000    0.0000    0.0000
    78 H6     2py       -0.0000    0.0002    0.0000    0.0000   -0.0000   -0.0000    0.0000   -0.0000    0.0000   -0.0000
    79 H6     2pz       -0.0000    0.0000    0.0000   -0.0000   -0.0000    0.0000   -0.0000   -0.0000   -0.0000    0.0000
    80 H7     1s         0.0001    0.0004   -0.0003   -0.0000   -0.0001    0.0000   -0.0000   -0.0003   -0.0001   -0.0000
    81 H7     2s         0.0000    0.0001   -0.0001   -0.0000   -0.0000    0.0000    0.0000   -0.0002   -0.0000   -0.0000
    82 H7     2px        0.0000   -0.0000   -0.0000   -0.0000   -0.0000   -0.0000   -0.0000   -0.0000   -0.0000    0.0000
    83 H7     2py        0.0000   -0.0000    0.0000    0.0000    0.0000    0.0000    0.0000   -0.0001   -0.0000   -0.0000
    84 H7     2pz        0.0000    0.0000    0.0000   -0.0000    0.0000    0.0000   -0.0000   -0.0000   -0.0000    0.0000
    85 H8     1s         0.0003   -0.0004   -0.0003    0.0000    0.0001   -0.0001   -0.0000    0.0011    0.0001    0.0000
    86 H8     2s         0.0002   -0.0001   -0.0001    0.0000    0.0002   -0.0001    0.0000    0.0007    0.0000   -0.0000
    87 H8     2px       -0.0000   -0.0000    0.0000   -0.0000   -0.0001    0.0001    0.0000   -0.0001   -0.0001   -0.0000
    88 H8     2py        0.0000   -0.0000    0.0000    0.0000   -0.0000    0.0000   -0.0000    0.0001    0.0000    0.0000
    89 H8     2pz        0.0000    0.0000    0.0000   -0.0000    0.0000   -0.0000    0.0000    0.0000    0.0000   -0.0000
    90 I9     1s        -0.0000    0.0000    0.0000   -0.0000   -0.0000    0.0000   -0.0000   -0.0000   -0.0000   -0.0000
    91 I9     2s        -0.0000    0.0000    0.0000   -0.0000   -0.0000    0.0000   -0.0000   -0.0000   -0.0000   -0.0000
    92 I9     3s        -0.0001    0.0000    0.0000   -0.0000   -0.0001    0.0000   -0.0000   -0.0001   -0.0000   -0.0000
[...]
::    CASPT2 Root  8     Total energy:  -7663.75658062
::    CASPT2 Root  9     Total energy:  -7663.78383358
 
  Note that these CASPT2 energies are obtained using
  the XMS Fock operator and thus do not correspond
  to the true single-state CASPT2 ones.
 
++ Multi-State CASPT2 section:
********************************************************************************
  MULTI-STATE CASPT2 SECTION
--------------------------------------------------------------------------------
 
  Output diagonal energies have been shifted. Add   -7664.00000000000     
 
  Effective Hamiltonian matrix (Symmetric):
 
                1               2               3               4               5
   1        -0.01981873
   2         0.00000049      0.13824195
   3        -0.00354417     -0.00000075      0.18182488
   4        -0.00015485      0.00000654      0.00049312      0.17087097
   5        -0.00000167      0.00321453     -0.00000421      0.00001090      0.17586608
   6         0.00429925      0.00000535     -0.00360290      0.00142732     -0.00000556
   7         0.00000015     -0.01460065      0.00000053      0.00000117      0.00092577
   8        -0.00635479     -0.00000005      0.01791665     -0.00023478      0.00000114
   9        -0.00000049     -0.00088532     -0.00000344      0.00000417     -0.00004415
 
                6               7               8               9
   6         0.17279691
   7         0.00000205      0.19878764
   8        -0.00537190     -0.00000033      0.22478460
   9        -0.00000053     -0.00143539      0.00000208      0.21603747
 
       Total XMS-CASPT2 energies:
::    XMS-CASPT2 Root  1     Total energy:  -7664.02011873
::    XMS-CASPT2 Root  2     Total energy:  -7663.86538263
::    XMS-CASPT2 Root  3     Total energy:  -7663.83034100
::    XMS-CASPT2 Root  4     Total energy:  -7663.82724336
::    XMS-CASPT2 Root  5     Total energy:  -7663.82401120
::    XMS-CASPT2 Root  6     Total energy:  -7663.82386506
::    XMS-CASPT2 Root  7     Total energy:  -7663.79797706
::    XMS-CASPT2 Root  8     Total energy:  -7663.78384205
::    XMS-CASPT2 Root  9     Total energy:  -7663.76782714
 
       Eigenvectors:
            0.99936275      0.00000031      0.01002257      0.01066678      0.01223170
           -0.00000257      0.97147465      0.00013329      0.00015594     -0.00112898
            0.01499445     -0.00000066      0.24113897      0.31309028     -0.85239998
            0.00096084     -0.00015383     -0.78035454      0.62527865      0.00759260
            0.00000807     -0.08068638      0.00198917     -0.00064035     -0.01478002
           -0.02131999     -0.00015492      0.57636809      0.71413539      0.38182599
           -0.00000068      0.22252660     -0.00000545      0.00001779     -0.00014127
            0.02436791     -0.00000743     -0.02437593     -0.02995846      0.35664570
            0.00000202      0.01444258      0.00010015     -0.00002203     -0.00013364
 
            0.00016029      0.00000013     -0.00000012     -0.03016988
            0.08017109     -0.22312663      0.00477464     -0.00000865
           -0.01292336      0.00001379     -0.00010823      0.34183166
            0.00205968      0.00000472      0.00008850     -0.00324905
            0.99660089      0.00680234     -0.00269769      0.00000351
            0.00495894      0.00002311     -0.00000131     -0.10742545
            0.01115221      0.97101933     -0.08648114     -0.00000918
            0.00531448      0.00000031     -0.00001679      0.93310777
            0.00328104      0.08537972      0.99623838      0.00005226
 
--
 
  THE ORIGINAL CI ARRAYS ARE NOW MIXED AS LINEAR
  COMBINATIONS, GIVEN BY THE EIGENVECTORS.
  A NEW JOBIPH FILE NAMED 'JOBMIX' IS PREPARED.
********************************************************************************
 
++ Mixed CI coefficients:
  The CI coefficients for the MIXED state nr.   1
--------------------------------------------------------------------------------
 CI COEFFICIENTS LARGER THAN  0.50D-01
  Occupation of active orbitals, and spin coupling
  of open shells. (u,d: Spin up or down).
  SGUGA info is (Midvert:IsyUp:UpperWalk/LowerWalk)
        Conf  SGUGA info        Occupation        Coefficient         Weight
           1  ( 1:1:   1/   1)   2222222200000      -0.921786       0.849690
         197  ( 2:1:   1/   1)   22222u22d0000      -0.054477       0.002968
        1670  ( 2:1:   4/   4)   22u222220d000       0.070336       0.004947
        2157  ( 2:1:   1/   5)   2u222222d0000      -0.108470       0.011766
        2178  ( 2:1:  22/   5)   2u22222du0d00       0.053890       0.002904
        3137  ( 3:1:   1/   1)   2222202220000       0.054944       0.003019
        3167  ( 3:1:  31/   1)   2222202200200       0.064828       0.004203
        5107  ( 3:1:  11/   5)   2u222d22u0d00       0.090334       0.008160
        7557  ( 3:1:  11/  10)   2u22d222u0d00      -0.084158       0.007083
        9021  ( 3:1:   5/  13)   22ud222202000      -0.053768       0.002891
       10491  ( 3:1:   5/  16)   2202222202000       0.084745       0.007182
       11957  ( 3:1:   1/  19)   2022222220000       0.137943       0.019028
       11987  ( 3:1:  31/  19)   2022222200200       0.058703       0.003446
       15197  ( 4:1:   7/   4)   2u222u22d0d00       0.081353       0.006618
 
  The CI coefficients for the MIXED state nr.   2
--------------------------------------------------------------------------------
 CI COEFFICIENTS LARGER THAN  0.50D-01
  Occupation of active orbitals, and spin coupling
  of open shells. (u,d: Spin up or down).
  SGUGA info is (Midvert:IsyUp:UpperWalk/LowerWalk)
        Conf  SGUGA info        Occupation        Coefficient         Weight
           7  ( 1:1:   7/   1)   2222222u0d000       0.520019       0.270420
         200  ( 2:1:   4/   1)   22222u220d000       0.136287       0.018574
         690  ( 2:1:   4/   2)   2222u2220d000       0.139888       0.019569
        1679  ( 2:1:  13/   4)   22u2222d02000       0.087663       0.007685
        2160  ( 2:1:   4/   5)   2u2222220d000       0.721322       0.520306
        2163  ( 2:1:   7/   5)   2u22222udd000      -0.071529       0.005116
        2186  ( 2:1:  30/   5)   2u22222d0ud00      -0.061257       0.003752
        5110  ( 3:1:  14/   5)   2u222d220ud00      -0.070462       0.004965
        7061  ( 3:1:   5/   9)   22u2d22202000       0.057422       0.003297
       11958  ( 3:1:   2/  19)   20222222ud000      -0.141170       0.019929
       11959  ( 3:1:   3/  19)   2022222u2d000       0.090643       0.008216
       24622  ( 5:1:  24/   4)   2u2220220d200       0.054874       0.003011
       35580  ( 5:1:   6/  18)   20222u22dud00      -0.067579       0.004567
 
  The CI coefficients for the MIXED state nr.   3
--------------------------------------------------------------------------------
 CI COEFFICIENTS LARGER THAN  0.50D-01
  Occupation of active orbitals, and spin coupling
  of open shells. (u,d: Spin up or down).
  SGUGA info is (Midvert:IsyUp:UpperWalk/LowerWalk)
        Conf  SGUGA info        Occupation        Coefficient         Weight
           2  ( 1:1:   2/   1)   2222222ud0000       0.114565       0.013125
           8  ( 1:1:   8/   1)   222222u20d000      -0.709612       0.503550
         217  ( 2:1:  21/   1)   22222u2200d00       0.052267       0.002732
        1670  ( 2:1:   4/   4)   22u222220d000       0.056236       0.003162
        1680  ( 2:1:  14/   4)   22u222d202000      -0.090356       0.008164
        2157  ( 2:1:   1/   5)   2u222222d0000       0.551505       0.304158
        2158  ( 2:1:   2/   5)   2u22222d20000       0.067478       0.004553
        2162  ( 2:1:   6/   5)   2u2222d2ud000       0.054009       0.002917
        2164  ( 2:1:   8/   5)   2u2222u2dd000       0.071347       0.005090
        2722  ( 2:1:  76/   6)   u2222222000d0       0.055847       0.003119
        5097  ( 3:1:   1/   5)   2u222d2220000      -0.091612       0.008393
        5117  ( 3:1:  21/   5)   2u222du2udd00       0.053036       0.002813
        7547  ( 3:1:   1/  10)   2u22d22220000      -0.066120       0.004372
        7567  ( 3:1:  21/  10)   2u22d2u2udd00      -0.052499       0.002756
       11957  ( 3:1:   1/  19)   2022222220000       0.063385       0.004018
       11960  ( 3:1:   4/  19)   202222u22d000      -0.100740       0.010149
       15207  ( 4:1:  17/   4)   2u222uu2ddd00      -0.051470       0.002649
 
  The CI coefficients for the MIXED state nr.   4
--------------------------------------------------------------------------------
 CI COEFFICIENTS LARGER THAN  0.50D-01
  Occupation of active orbitals, and spin coupling
  of open shells. (u,d: Spin up or down).
  SGUGA info is (Midvert:IsyUp:UpperWalk/LowerWalk)
        Conf  SGUGA info        Occupation        Coefficient         Weight
           2  ( 1:1:   2/   1)   2222222ud0000       0.088567       0.007844
           8  ( 1:1:   8/   1)   222222u20d000       0.543895       0.295822
         197  ( 2:1:   1/   1)   22222u22d0000      -0.290945       0.084649
         217  ( 2:1:  21/   1)   22222u2200d00       0.066403       0.004409
        1180  ( 2:1:   4/   3)   222u22220d000      -0.078831       0.006214
        1673  ( 2:1:   7/   4)   22u2222udd000       0.051196       0.002621
        1680  ( 2:1:  14/   4)   22u222d202000       0.074117       0.005493
        2157  ( 2:1:   1/   5)   2u222222d0000       0.636037       0.404543
        2158  ( 2:1:   2/   5)   2u22222d20000       0.091681       0.008405
        2164  ( 2:1:   8/   5)   2u2222u2dd000      -0.055422       0.003072
        2177  ( 2:1:  21/   5)   2u22222200d00       0.104125       0.010842
        2722  ( 2:1:  76/   6)   u2222222000d0       0.071967       0.005179
        3147  ( 3:1:  11/   1)   22222022u0d00      -0.051889       0.002692
        5097  ( 3:1:   1/   5)   2u222d2220000      -0.096818       0.009374
        5107  ( 3:1:  11/   5)   2u222d22u0d00       0.086731       0.007522
        7547  ( 3:1:   1/  10)   2u22d22220000      -0.082863       0.006866
       11960  ( 3:1:   4/  19)   202222u22d000       0.082081       0.006737
       11987  ( 3:1:  31/  19)   2022222200200       0.053903       0.002906
       24619  ( 5:1:  21/   4)   2u222022d0200       0.050111       0.002511
       70856  ( 5:1:   2/  63)   2u022222d2000       0.058687       0.003444
 
  The CI coefficients for the MIXED state nr.   5
--------------------------------------------------------------------------------
 CI COEFFICIENTS LARGER THAN  0.50D-01
  Occupation of active orbitals, and spin coupling
  of open shells. (u,d: Spin up or down).
  SGUGA info is (Midvert:IsyUp:UpperWalk/LowerWalk)
        Conf  SGUGA info        Occupation        Coefficient         Weight
           2  ( 1:1:   2/   1)   2222222ud0000       0.345984       0.119705
           8  ( 1:1:   8/   1)   222222u20d000       0.180853       0.032708
         197  ( 2:1:   1/   1)   22222u22d0000       0.492007       0.242071
         198  ( 2:1:   2/   1)   22222u2d20000      -0.082725       0.006843
         218  ( 2:1:  22/   1)   22222u2du0d00       0.058903       0.003470
         252  ( 2:1:  56/   1)   22222u2d00200       0.059780       0.003574
         687  ( 2:1:   1/   2)   2222u222d0000      -0.138722       0.019244
        2157  ( 2:1:   1/   5)   2u222222d0000       0.114722       0.013161
        2177  ( 2:1:  21/   5)   2u22222200d00      -0.461605       0.213079
        2178  ( 2:1:  22/   5)   2u22222du0d00      -0.050964       0.002597
        3137  ( 3:1:   1/   1)   2222202220000      -0.123203       0.015179
        3167  ( 3:1:  31/   1)   2222202200200       0.098793       0.009760
        3627  ( 3:1:   1/   2)   2222ud2220000       0.116511       0.013575
        3657  ( 3:1:  31/   2)   2222ud2200200      -0.058212       0.003389
        5097  ( 3:1:   1/   5)   2u222d2220000      -0.071392       0.005097
        5107  ( 3:1:  11/   5)   2u222d22u0d00      -0.174016       0.030282
        5127  ( 3:1:  31/   5)   2u222d2200200       0.063323       0.004010
        7557  ( 3:1:  11/  10)   2u22d222u0d00       0.075809       0.005747
       11957  ( 3:1:   1/  19)   2022222220000       0.317320       0.100692
       11967  ( 3:1:  11/  19)   20222222u0d00      -0.131416       0.017270
       11987  ( 3:1:  31/  19)   2022222200200      -0.148717       0.022117
       15197  ( 4:1:   7/   4)   2u222u22d0d00       0.073284       0.005370
       35595  ( 5:1:  21/  18)   20222u22d0200      -0.077379       0.005988
 
  The CI coefficients for the MIXED state nr.   6
--------------------------------------------------------------------------------
 CI COEFFICIENTS LARGER THAN  0.50D-01
  Occupation of active orbitals, and spin coupling
  of open shells. (u,d: Spin up or down).
  SGUGA info is (Midvert:IsyUp:UpperWalk/LowerWalk)
        Conf  SGUGA info        Occupation        Coefficient         Weight
           7  ( 1:1:   7/   1)   2222222u0d000       0.271214       0.073557
         200  ( 2:1:   4/   1)   22222u220d000      -0.849332       0.721365
         201  ( 2:1:   5/   1)   22222u2dud000       0.088357       0.007807
        2186  ( 2:1:  30/   5)   2u22222d0ud00       0.052571       0.002764
        3628  ( 3:1:   2/   2)   2222ud22ud000      -0.093587       0.008759
        4611  ( 3:1:   5/   4)   22u22d2202000       0.118628       0.014073
        5098  ( 3:1:   2/   5)   2u222d22ud000       0.108990       0.011879
        5110  ( 3:1:  14/   5)   2u222d220ud00       0.147122       0.021645
        7560  ( 3:1:  14/  10)   2u22d2220ud00      -0.054727       0.002995
       10981  ( 3:1:   5/  17)   2ud2222202000       0.051773       0.002680
       11958  ( 3:1:   2/  19)   20222222ud000       0.050117       0.002512
       11959  ( 3:1:   3/  19)   2022222u2d000       0.050631       0.002564
       13427  ( 4:1:   1/   1)   2222uu22dd000      -0.051439       0.002646
       15191  ( 4:1:   1/   4)   2u222u22dd000      -0.069656       0.004852
       28527  ( 5:1:   9/   9)   2u22du22udd00      -0.060330       0.003640
       35575  ( 5:1:   1/  18)   20222u222d000      -0.093194       0.008685
       35598  ( 5:1:  24/  18)   20222u220d200       0.086013       0.007398
 
  The CI coefficients for the MIXED state nr.   7
--------------------------------------------------------------------------------
 CI COEFFICIENTS LARGER THAN  0.50D-01
  Occupation of active orbitals, and spin coupling
  of open shells. (u,d: Spin up or down).
  SGUGA info is (Midvert:IsyUp:UpperWalk/LowerWalk)
        Conf  SGUGA info        Occupation        Coefficient         Weight
           3  ( 1:1:   3/   1)   222222u2d0000       0.073126       0.005347
           7  ( 1:1:   7/   1)   2222222u0d000       0.630902       0.398037
         200  ( 2:1:   4/   1)   22222u220d000       0.210835       0.044452
         226  ( 2:1:  30/   1)   22222u2d0ud00       0.050378       0.002538
         690  ( 2:1:   4/   2)   2222u2220d000       0.247423       0.061218
        2160  ( 2:1:   4/   5)   2u2222220d000      -0.519802       0.270194
        3150  ( 3:1:  14/   1)   222220220ud00       0.088440       0.007822
        5110  ( 3:1:  14/   5)   2u222d220ud00      -0.058720       0.003448
        7548  ( 3:1:   2/  10)   2u22d222ud000       0.066594       0.004435
        9511  ( 3:1:   5/  14)   2u2d222202000      -0.054354       0.002954
       10981  ( 3:1:   5/  17)   2ud2222202000       0.188776       0.035636
       11958  ( 3:1:   2/  19)   20222222ud000       0.184258       0.033951
       11959  ( 3:1:   3/  19)   2022222u2d000       0.059847       0.003582
       11970  ( 3:1:  14/  19)   202222220ud00      -0.083136       0.006912
       15191  ( 4:1:   1/   4)   2u222u22dd000       0.082395       0.006789
 
  The CI coefficients for the MIXED state nr.   8
--------------------------------------------------------------------------------
 CI COEFFICIENTS LARGER THAN  0.50D-01
  Occupation of active orbitals, and spin coupling
  of open shells. (u,d: Spin up or down).
  SGUGA info is (Midvert:IsyUp:UpperWalk/LowerWalk)
        Conf  SGUGA info        Occupation        Coefficient         Weight
           3  ( 1:1:   3/   1)   222222u2d0000       0.883399       0.780394
           7  ( 1:1:   7/   1)   2222222u0d000      -0.059115       0.003495
          22  ( 1:1:  22/   1)   222222u200d00       0.091614       0.008393
         221  ( 2:1:  25/   1)   22222uu2d0d00      -0.063946       0.004089
         253  ( 2:1:  57/   1)   22222ud200200       0.052122       0.002717
        1672  ( 2:1:   6/   4)   22u222d2ud000       0.134790       0.018168
        1674  ( 2:1:   8/   4)   22u222u2dd000       0.138255       0.019114
        2159  ( 2:1:   3/   5)   2u2222d220000       0.197130       0.038860
        2170  ( 2:1:  14/   5)   2u2222d202000      -0.137721       0.018967
        2181  ( 2:1:  25/   5)   2u2222u2d0d00       0.056131       0.003151
        3169  ( 3:1:  33/   1)   222220u2d0200      -0.068991       0.004760
        5109  ( 3:1:  13/   5)   2u222du220d00      -0.053607       0.002874
       10493  ( 3:1:   7/  16)   220222u2d2000      -0.058275       0.003396
       11963  ( 3:1:   7/  19)   202222u2d2000      -0.052263       0.002731
       11989  ( 3:1:  33/  19)   202222u2d0200      -0.058691       0.003445
       15199  ( 4:1:   9/   4)   2u222ud220d00      -0.054256       0.002944
 
  The CI coefficients for the MIXED state nr.   9
--------------------------------------------------------------------------------
 CI COEFFICIENTS LARGER THAN  0.50D-01
  Occupation of active orbitals, and spin coupling
  of open shells. (u,d: Spin up or down).
  SGUGA info is (Midvert:IsyUp:UpperWalk/LowerWalk)
        Conf  SGUGA info        Occupation        Coefficient         Weight
           1  ( 1:1:   1/   1)   2222222200000       0.099095       0.009820
           2  ( 1:1:   2/   1)   2222222ud0000       0.410543       0.168545
           8  ( 1:1:   8/   1)   222222u20d000      -0.079572       0.006332
         197  ( 2:1:   1/   1)   22222u22d0000      -0.594279       0.353168
         687  ( 2:1:   1/   2)   2222u222d0000      -0.260362       0.067788
        1252  ( 2:1:  76/   3)   222u2222000d0      -0.064405       0.004148
        1670  ( 2:1:   4/   4)   22u222220d000      -0.069305       0.004803
        1742  ( 2:1:  76/   4)   22u22222000d0      -0.056857       0.003233
        2157  ( 2:1:   1/   5)   2u222222d0000      -0.252279       0.063645
        2169  ( 2:1:  13/   5)   2u22222d02000      -0.053818       0.002896
        2177  ( 2:1:  21/   5)   2u22222200d00      -0.050553       0.002556
        2180  ( 2:1:  24/   5)   2u22222ud0d00       0.066446       0.004415
        2857  ( 2:1: 211/   6)   u22222220000d       0.069659       0.004852
        3137  ( 3:1:   1/   1)   2222202220000      -0.164715       0.027131
        3168  ( 3:1:  32/   1)   2222202ud0200      -0.050450       0.002545
        3627  ( 3:1:   1/   2)   2222ud2220000      -0.089335       0.007981
        5107  ( 3:1:  11/   5)   2u222d22u0d00       0.060726       0.003688
       11957  ( 3:1:   1/  19)   2022222220000       0.354582       0.125729
       11987  ( 3:1:  31/  19)   2022222200200      -0.076889       0.005912
       17549  ( 4:1:   7/   8)   2u22u222d0d00      -0.076456       0.005846
       24603  ( 5:1:   5/   4)   2u22202220d00       0.096228       0.009260
       28523  ( 5:1:   5/   9)   2u22du2220d00      -0.052718       0.002779
       33224  ( 5:1:   2/  15)   22022u22d2000       0.053783       0.002893
 
--
 
--- Stop Module: caspt2 at Sun Nov 28 05:58:30 2021 /rc=_RC_ALL_IS_WELL_ ---
*** files: xmldump
    saved to directory /data/nhlist/ued/2-iodo-thiophene/molcas/singlet
--- Module caspt2 spent 6 hours 39 minutes 59 seconds ---

>>> COPY molcas.JobMix JOB001

.########################.
.# Non-zero return code #.
.########################.

    Timing: Wall=25569.51 User=25369.90 System=119.63
